REMARK 999 siam chowdhury
REMARK 999 Computational and Medicinal Chemistry
REMARK 999 [Dr. Alam's Research Team] www.alamresearch.org
REMARK 999 Arkansas State University
REMARK 999 20sa23 Vina docking output (7L00 FabK)
REMARK 999 Created: 2026-09-25 02:27:27
MODEL 1
REMARK VINA RESULT:    -7.297      0.000      0.000
REMARK INTER + INTRA:         -11.074
REMARK INTER:                  -9.857
REMARK INTRA:                  -1.216
REMARK UNBOUND:                -1.216
REMARK SMILES O=C([O-])c1ccc(-n2cc(CNc3cc(Cl)cc(Cl)c3)c(-c3ccc(F)cc3)n2)cc1
REMARK SMILES IDX 29 1 21 2 10 3 9 4 8 5 7 6 4 7 31 8 5 9 30 10 6 11 2 12 1 13
REMARK SMILES IDX 3 14 22 15 28 16 23 17 27 18 24 19 25 20 26 21 11 22 12 23
REMARK SMILES IDX 13 25 14 26 20 27 15 28 18 29 17 30 16 31 19 32
REMARK H PARENT 12 24
ROOT
ATOM      1  N   UNL     1       9.768  20.504  28.954  1.00  0.00    -0.168 NA
ATOM      2  C   UNL     1       8.471  20.563  28.601  1.00  0.00     0.098 A 
ATOM      3  C   UNL     1       7.645  20.068  29.653  1.00  0.00     0.018 A 
ATOM      4  C   UNL     1       8.525  19.623  30.611  1.00  0.00     0.121 A 
ATOM      5  N   UNL     1       9.791  19.923  30.178  1.00  0.00    -0.240 N 
ENDROOT
BRANCH   5   6
ATOM      6  C   UNL     1      11.004  19.710  30.896  1.00  0.00     0.065 A 
ATOM      7  C   UNL     1      13.353  19.302  32.382  1.00  0.00    -0.003 A 
ATOM      8  C   UNL     1      12.470  18.241  32.166  1.00  0.00     0.012 A 
ATOM      9  C   UNL     1      13.056  20.570  31.866  1.00  0.00     0.012 A 
ATOM     10  C   UNL     1      11.308  18.442  31.419  1.00  0.00     0.029 A 
ATOM     11  C   UNL     1      11.890  20.774  31.118  1.00  0.00     0.029 A 
BRANCH   7  12
ATOM     12  C   UNL     1      14.578  19.131  33.201  1.00  0.00     0.071 C 
ATOM     13  O   UNL     1      15.304  18.160  33.111  1.00  0.00    -0.545 OA
ATOM     14  O   UNL     1      14.794  20.143  34.069  1.00  0.00    -0.545 OA
ENDBRANCH   7  12
ENDBRANCH   5   6
BRANCH   2  15
ATOM     15  C   UNL     1       8.055  21.105  27.298  1.00  0.00     0.003 A 
ATOM     16  C   UNL     1       8.297  22.447  26.969  1.00  0.00     0.013 A 
ATOM     17  C   UNL     1       7.409  20.292  26.349  1.00  0.00     0.013 A 
ATOM     18  C   UNL     1       7.885  22.965  25.736  1.00  0.00     0.040 A 
ATOM     19  C   UNL     1       6.986  20.810  25.123  1.00  0.00     0.040 A 
ATOM     20  C   UNL     1       7.227  22.143  24.827  1.00  0.00     0.123 A 
ATOM     21  F   UNL     1       6.830  22.640  23.649  1.00  0.00    -0.207 F 
ENDBRANCH   2  15
BRANCH   3  22
ATOM     22  C   UNL     1       6.159  20.046  29.761  1.00  0.00     0.152 C 
BRANCH  22  23
ATOM     23  N   UNL     1       5.611  18.806  30.312  1.00  0.00    -0.381 N 
ATOM     24  H   UNL     1       5.725  18.578  31.263  1.00  0.00     0.160 HD
BRANCH  23  25
ATOM     25  C   UNL     1       4.920  17.954  29.443  1.00  0.00     0.037 A 
ATOM     26  C   UNL     1       3.773  17.295  29.907  1.00  0.00     0.046 A 
ATOM     27  C   UNL     1       5.390  17.624  28.165  1.00  0.00     0.046 A 
ATOM     28  C   UNL     1       3.074  16.409  29.082  1.00  0.00     0.044 A 
ATOM     29  C   UNL     1       4.688  16.738  27.347  1.00  0.00     0.044 A 
ATOM     30  C   UNL     1       3.519  16.135  27.794  1.00  0.00     0.041 A 
ATOM     31  Cl  UNL     1       1.643  15.653  29.665  1.00  0.00    -0.084 Cl
ATOM     32  Cl  UNL     1       5.281  16.392  25.769  1.00  0.00    -0.084 Cl
ENDBRANCH  23  25
ENDBRANCH  22  23
ENDBRANCH   3  22
TORSDOF 6
ENDMDL
MODEL 2
REMARK VINA RESULT:    -7.271      0.118      1.619
REMARK INTER + INTRA:         -11.038
REMARK INTER:                  -9.836
REMARK INTRA:                  -1.202
REMARK UNBOUND:                -1.216
REMARK SMILES O=C([O-])c1ccc(-n2cc(CNc3cc(Cl)cc(Cl)c3)c(-c3ccc(F)cc3)n2)cc1
REMARK SMILES IDX 29 1 21 2 10 3 9 4 8 5 7 6 4 7 31 8 5 9 30 10 6 11 2 12 1 13
REMARK SMILES IDX 3 14 22 15 28 16 23 17 27 18 24 19 25 20 26 21 11 22 12 23
REMARK SMILES IDX 13 25 14 26 20 27 15 28 18 29 17 30 16 31 19 32
REMARK H PARENT 12 24
ROOT
ATOM      1  N   UNL     1       9.749  20.551  28.919  1.00  0.00    -0.168 NA
ATOM      2  C   UNL     1       8.459  20.590  28.539  1.00  0.00     0.098 A 
ATOM      3  C   UNL     1       7.622  20.044  29.556  1.00  0.00     0.018 A 
ATOM      4  C   UNL     1       8.491  19.590  30.520  1.00  0.00     0.121 A 
ATOM      5  N   UNL     1       9.759  19.933  30.126  1.00  0.00    -0.240 N 
ENDROOT
BRANCH   5   6
ATOM      6  C   UNL     1      10.961  19.725  30.863  1.00  0.00     0.065 A 
ATOM      7  C   UNL     1      13.286  19.327  32.390  1.00  0.00    -0.003 A 
ATOM      8  C   UNL     1      12.427  18.256  32.133  1.00  0.00     0.012 A 
ATOM      9  C   UNL     1      12.977  20.601  31.895  1.00  0.00     0.012 A 
ATOM     10  C   UNL     1      11.277  18.452  31.366  1.00  0.00     0.029 A 
ATOM     11  C   UNL     1      11.823  20.800  31.127  1.00  0.00     0.029 A 
BRANCH   7  12
ATOM     12  C   UNL     1      14.496  19.160  33.231  1.00  0.00     0.071 C 
ATOM     13  O   UNL     1      15.314  18.279  33.046  1.00  0.00    -0.545 OA
ATOM     14  O   UNL     1      14.590  20.063  34.230  1.00  0.00    -0.545 OA
ENDBRANCH   7  12
ENDBRANCH   5   6
BRANCH   2  15
ATOM     15  C   UNL     1       8.059  21.163  27.244  1.00  0.00     0.003 A 
ATOM     16  C   UNL     1       8.207  22.535  26.990  1.00  0.00     0.013 A 
ATOM     17  C   UNL     1       7.524  20.350  26.228  1.00  0.00     0.013 A 
ATOM     18  C   UNL     1       7.809  23.080  25.765  1.00  0.00     0.040 A 
ATOM     19  C   UNL     1       7.115  20.895  25.009  1.00  0.00     0.040 A 
ATOM     20  C   UNL     1       7.261  22.256  24.787  1.00  0.00     0.123 A 
ATOM     21  F   UNL     1       6.878  22.779  23.616  1.00  0.00    -0.207 F 
ENDBRANCH   2  15
BRANCH   3  22
ATOM     22  C   UNL     1       6.136  19.984  29.630  1.00  0.00     0.152 C 
BRANCH  22  23
ATOM     23  N   UNL     1       5.609  18.773  30.261  1.00  0.00    -0.381 N 
ATOM     24  H   UNL     1       5.727  18.611  31.225  1.00  0.00     0.160 HD
BRANCH  23  25
ATOM     25  C   UNL     1       4.934  17.854  29.451  1.00  0.00     0.037 A 
ATOM     26  C   UNL     1       5.392  17.633  28.145  1.00  0.00     0.046 A 
ATOM     27  C   UNL     1       3.737  17.235  29.836  1.00  0.00     0.046 A 
ATOM     28  C   UNL     1       4.725  16.748  27.293  1.00  0.00     0.044 A 
ATOM     29  C   UNL     1       3.075  16.354  28.979  1.00  0.00     0.044 A 
ATOM     30  C   UNL     1       3.571  16.095  27.708  1.00  0.00     0.041 A 
ATOM     31  Cl  UNL     1       5.342  16.462  25.712  1.00  0.00    -0.084 Cl
ATOM     32  Cl  UNL     1       1.629  15.584  29.508  1.00  0.00    -0.084 Cl
ENDBRANCH  23  25
ENDBRANCH  22  23
ENDBRANCH   3  22
TORSDOF 6
ENDMDL
MODEL 3
REMARK VINA RESULT:    -7.264      7.701     11.419
REMARK INTER + INTRA:         -11.028
REMARK INTER:                  -9.943
REMARK INTRA:                  -1.085
REMARK UNBOUND:                -1.216
REMARK SMILES O=C([O-])c1ccc(-n2cc(CNc3cc(Cl)cc(Cl)c3)c(-c3ccc(F)cc3)n2)cc1
REMARK SMILES IDX 29 1 21 2 10 3 9 4 8 5 7 6 4 7 31 8 5 9 30 10 6 11 2 12 1 13
REMARK SMILES IDX 3 14 22 15 28 16 23 17 27 18 24 19 25 20 26 21 11 22 12 23
REMARK SMILES IDX 13 25 14 26 20 27 15 28 18 29 17 30 16 31 19 32
REMARK H PARENT 12 24
ROOT
ATOM      1  N   UNL     1      11.862  15.571  34.540  1.00  0.00    -0.168 NA
ATOM      2  C   UNL     1      13.019  16.253  34.623  1.00  0.00     0.098 A 
ATOM      3  C   UNL     1      13.157  17.138  33.513  1.00  0.00     0.018 A 
ATOM      4  C   UNL     1      12.068  16.875  32.716  1.00  0.00     0.121 A 
ATOM      5  N   UNL     1      11.292  15.952  33.371  1.00  0.00    -0.240 N 
ENDROOT
BRANCH   5   6
ATOM      6  C   UNL     1      10.028  15.451  32.943  1.00  0.00     0.065 A 
ATOM      7  C   UNL     1       7.506  14.545  32.101  1.00  0.00    -0.003 A 
ATOM      8  C   UNL     1       8.431  15.006  31.162  1.00  0.00     0.012 A 
ATOM      9  C   UNL     1       7.835  14.548  33.463  1.00  0.00     0.012 A 
ATOM     10  C   UNL     1       9.688  15.447  31.580  1.00  0.00     0.029 A 
ATOM     11  C   UNL     1       9.095  14.992  33.884  1.00  0.00     0.029 A 
BRANCH   7  12
ATOM     12  C   UNL     1       6.149  14.103  31.694  1.00  0.00     0.071 C 
ATOM     13  O   UNL     1       5.871  13.787  30.553  1.00  0.00    -0.545 OA
ATOM     14  O   UNL     1       5.253  14.109  32.703  1.00  0.00    -0.545 OA
ENDBRANCH   7  12
ENDBRANCH   5   6
BRANCH   2  15
ATOM     15  C   UNL     1      13.940  16.067  35.755  1.00  0.00     0.003 A 
ATOM     16  C   UNL     1      15.081  15.259  35.626  1.00  0.00     0.013 A 
ATOM     17  C   UNL     1      13.704  16.696  36.991  1.00  0.00     0.013 A 
ATOM     18  C   UNL     1      15.946  15.070  36.710  1.00  0.00     0.040 A 
ATOM     19  C   UNL     1      14.561  16.498  38.076  1.00  0.00     0.040 A 
ATOM     20  C   UNL     1      15.675  15.686  37.927  1.00  0.00     0.123 A 
ATOM     21  F   UNL     1      16.500  15.501  38.964  1.00  0.00    -0.207 F 
ENDBRANCH   2  15
BRANCH   3  22
ATOM     22  C   UNL     1      14.204  18.162  33.241  1.00  0.00     0.152 C 
BRANCH  22  23
ATOM     23  N   UNL     1      14.761  18.791  34.440  1.00  0.00    -0.381 N 
ATOM     24  H   UNL     1      15.456  18.341  34.973  1.00  0.00     0.160 HD
BRANCH  23  25
ATOM     25  C   UNL     1      14.274  20.051  34.804  1.00  0.00     0.037 A 
ATOM     26  C   UNL     1      13.979  20.982  33.799  1.00  0.00     0.046 A 
ATOM     27  C   UNL     1      14.188  20.478  36.136  1.00  0.00     0.046 A 
ATOM     28  C   UNL     1      13.522  22.263  34.123  1.00  0.00     0.044 A 
ATOM     29  C   UNL     1      13.733  21.759  36.451  1.00  0.00     0.044 A 
ATOM     30  C   UNL     1      13.385  22.655  35.449  1.00  0.00     0.041 A 
ATOM     31  Cl  UNL     1      13.122  23.366  32.864  1.00  0.00    -0.084 Cl
ATOM     32  Cl  UNL     1      13.605  22.229  38.102  1.00  0.00    -0.084 Cl
ENDBRANCH  23  25
ENDBRANCH  22  23
ENDBRANCH   3  22
TORSDOF 6
ENDMDL
MODEL 4
REMARK VINA RESULT:    -7.200      7.572     11.240
REMARK INTER + INTRA:         -10.942
REMARK INTER:                  -9.854
REMARK INTRA:                  -1.088
REMARK UNBOUND:                -1.216
REMARK SMILES O=C([O-])c1ccc(-n2cc(CNc3cc(Cl)cc(Cl)c3)c(-c3ccc(F)cc3)n2)cc1
REMARK SMILES IDX 29 1 21 2 10 3 9 4 8 5 7 6 4 7 31 8 5 9 30 10 6 11 2 12 1 13
REMARK SMILES IDX 3 14 22 15 28 16 23 17 27 18 24 19 25 20 26 21 11 22 12 23
REMARK SMILES IDX 13 25 14 26 20 27 15 28 18 29 17 30 16 31 19 32
REMARK H PARENT 12 24
ROOT
ATOM      1  N   UNL     1      11.949  15.633  34.637  1.00  0.00    -0.168 NA
ATOM      2  C   UNL     1      13.111  16.306  34.732  1.00  0.00     0.098 A 
ATOM      3  C   UNL     1      13.279  17.170  33.610  1.00  0.00     0.018 A 
ATOM      4  C   UNL     1      12.203  16.904  32.796  1.00  0.00     0.121 A 
ATOM      5  N   UNL     1      11.406  15.999  33.450  1.00  0.00    -0.240 N 
ENDROOT
BRANCH   5   6
ATOM      6  C   UNL     1      10.146  15.504  33.005  1.00  0.00     0.065 A 
ATOM      7  C   UNL     1       7.630  14.606  32.136  1.00  0.00    -0.003 A 
ATOM      8  C   UNL     1       8.528  15.160  31.220  1.00  0.00     0.012 A 
ATOM      9  C   UNL     1       7.983  14.512  33.488  1.00  0.00     0.012 A 
ATOM     10  C   UNL     1       9.783  15.597  31.651  1.00  0.00     0.029 A 
ATOM     11  C   UNL     1       9.240  14.952  33.923  1.00  0.00     0.029 A 
BRANCH   7  12
ATOM     12  C   UNL     1       6.277  14.166  31.717  1.00  0.00     0.071 C 
ATOM     13  O   UNL     1       5.358  14.017  32.499  1.00  0.00    -0.545 OA
ATOM     14  O   UNL     1       6.172  13.926  30.392  1.00  0.00    -0.545 OA
ENDBRANCH   7  12
ENDBRANCH   5   6
BRANCH   2  15
ATOM     15  C   UNL     1      14.007  16.130  35.885  1.00  0.00     0.003 A 
ATOM     16  C   UNL     1      15.165  15.344  35.780  1.00  0.00     0.013 A 
ATOM     17  C   UNL     1      13.729  16.747  37.118  1.00  0.00     0.013 A 
ATOM     18  C   UNL     1      16.006  15.164  36.883  1.00  0.00     0.040 A 
ATOM     19  C   UNL     1      14.562  16.558  38.223  1.00  0.00     0.040 A 
ATOM     20  C   UNL     1      15.694  15.768  38.097  1.00  0.00     0.123 A 
ATOM     21  F   UNL     1      16.497  15.592  39.153  1.00  0.00    -0.207 F 
ENDBRANCH   2  15
BRANCH   3  22
ATOM     22  C   UNL     1      14.341  18.180  33.343  1.00  0.00     0.152 C 
BRANCH  22  23
ATOM     23  N   UNL     1      14.596  19.099  34.453  1.00  0.00    -0.381 N 
ATOM     24  H   UNL     1      15.019  18.786  35.285  1.00  0.00     0.160 HD
BRANCH  23  25
ATOM     25  C   UNL     1      14.218  20.437  34.294  1.00  0.00     0.037 A 
ATOM     26  C   UNL     1      13.961  21.211  35.434  1.00  0.00     0.046 A 
ATOM     27  C   UNL     1      13.957  21.011  33.043  1.00  0.00     0.046 A 
ATOM     28  C   UNL     1      13.549  22.541  35.318  1.00  0.00     0.044 A 
ATOM     29  C   UNL     1      13.543  22.339  32.934  1.00  0.00     0.044 A 
ATOM     30  C   UNL     1      13.349  23.117  34.069  1.00  0.00     0.041 A 
ATOM     31  Cl  UNL     1      13.289  23.478  36.737  1.00  0.00    -0.084 Cl
ATOM     32  Cl  UNL     1      13.272  23.017  31.375  1.00  0.00    -0.084 Cl
ENDBRANCH  23  25
ENDBRANCH  22  23
ENDBRANCH   3  22
TORSDOF 6
ENDMDL
MODEL 5
REMARK VINA RESULT:    -7.135      2.789      4.313
REMARK INTER + INTRA:         -10.853
REMARK INTER:                  -8.619
REMARK INTRA:                  -2.235
REMARK UNBOUND:                -1.216
REMARK SMILES O=C([O-])c1ccc(-n2cc(CNc3cc(Cl)cc(Cl)c3)c(-c3ccc(F)cc3)n2)cc1
REMARK SMILES IDX 29 1 21 2 10 3 9 4 8 5 7 6 4 7 31 8 5 9 30 10 6 11 2 12 1 13
REMARK SMILES IDX 3 14 22 15 28 16 23 17 27 18 24 19 25 20 26 21 11 22 12 23
REMARK SMILES IDX 13 25 14 26 20 27 15 28 18 29 17 30 16 31 19 32
REMARK H PARENT 12 24
ROOT
ATOM      1  N   UNL     1       8.990  19.442  30.342  1.00  0.00    -0.168 NA
ATOM      2  C   UNL     1       8.210  19.923  29.356  1.00  0.00     0.098 A 
ATOM      3  C   UNL     1       8.946  20.828  28.534  1.00  0.00     0.018 A 
ATOM      4  C   UNL     1      10.175  20.933  29.141  1.00  0.00     0.121 A 
ATOM      5  N   UNL     1      10.184  20.070  30.207  1.00  0.00    -0.240 N 
ENDROOT
BRANCH   5   6
ATOM      6  C   UNL     1      11.286  19.799  31.068  1.00  0.00     0.065 A 
ATOM      7  C   UNL     1      13.509  19.257  32.699  1.00  0.00    -0.003 A 
ATOM      8  C   UNL     1      13.269  20.560  32.256  1.00  0.00     0.012 A 
ATOM      9  C   UNL     1      12.646  18.222  32.317  1.00  0.00     0.012 A 
ATOM     10  C   UNL     1      12.158  20.831  31.454  1.00  0.00     0.029 A 
ATOM     11  C   UNL     1      11.533  18.491  31.511  1.00  0.00     0.029 A 
BRANCH   7  12
ATOM     12  C   UNL     1      14.699  18.930  33.523  1.00  0.00     0.071 C 
ATOM     13  O   UNL     1      15.310  17.884  33.417  1.00  0.00    -0.545 OA
ATOM     14  O   UNL     1      15.022  19.894  34.412  1.00  0.00    -0.545 OA
ENDBRANCH   7  12
ENDBRANCH   5   6
BRANCH   2  15
ATOM     15  C   UNL     1       6.810  19.495  29.207  1.00  0.00     0.003 A 
ATOM     16  C   UNL     1       5.902  19.636  30.267  1.00  0.00     0.013 A 
ATOM     17  C   UNL     1       6.348  18.941  28.000  1.00  0.00     0.013 A 
ATOM     18  C   UNL     1       4.575  19.212  30.130  1.00  0.00     0.040 A 
ATOM     19  C   UNL     1       5.027  18.507  27.866  1.00  0.00     0.040 A 
ATOM     20  C   UNL     1       4.151  18.646  28.932  1.00  0.00     0.123 A 
ATOM     21  F   UNL     1       2.883  18.237  28.802  1.00  0.00    -0.207 F 
ENDBRANCH   2  15
BRANCH   3  22
ATOM     22  C   UNL     1       8.539  21.507  27.273  1.00  0.00     0.152 C 
BRANCH  22  23
ATOM     23  N   UNL     1       7.797  22.754  27.469  1.00  0.00    -0.381 N 
ATOM     24  H   UNL     1       8.260  23.622  27.493  1.00  0.00     0.160 HD
BRANCH  23  25
ATOM     25  C   UNL     1       6.409  22.671  27.621  1.00  0.00     0.037 A 
ATOM     26  C   UNL     1       5.841  22.989  28.862  1.00  0.00     0.046 A 
ATOM     27  C   UNL     1       5.563  22.160  26.628  1.00  0.00     0.046 A 
ATOM     28  C   UNL     1       4.462  22.887  29.065  1.00  0.00     0.044 A 
ATOM     29  C   UNL     1       4.187  22.059  26.838  1.00  0.00     0.044 A 
ATOM     30  C   UNL     1       3.625  22.433  28.052  1.00  0.00     0.041 A 
ATOM     31  Cl  UNL     1       3.790  23.330  30.586  1.00  0.00    -0.084 Cl
ATOM     32  Cl  UNL     1       3.179  21.463  25.576  1.00  0.00    -0.084 Cl
ENDBRANCH  23  25
ENDBRANCH  22  23
ENDBRANCH   3  22
TORSDOF 6
ENDMDL
MODEL 6
REMARK VINA RESULT:    -7.088      2.795      4.536
REMARK INTER + INTRA:         -10.791
REMARK INTER:                  -8.545
REMARK INTRA:                  -2.245
REMARK UNBOUND:                -1.216
REMARK SMILES O=C([O-])c1ccc(-n2cc(CNc3cc(Cl)cc(Cl)c3)c(-c3ccc(F)cc3)n2)cc1
REMARK SMILES IDX 29 1 21 2 10 3 9 4 8 5 7 6 4 7 31 8 5 9 30 10 6 11 2 12 1 13
REMARK SMILES IDX 3 14 22 15 28 16 23 17 27 18 24 19 25 20 26 21 11 22 12 23
REMARK SMILES IDX 13 25 14 26 20 27 15 28 18 29 17 30 16 31 19 32
REMARK H PARENT 12 24
ROOT
ATOM      1  N   UNL     1       9.066  19.429  30.372  1.00  0.00    -0.168 NA
ATOM      2  C   UNL     1       8.275  19.945  29.414  1.00  0.00     0.098 A 
ATOM      3  C   UNL     1       8.995  20.896  28.632  1.00  0.00     0.018 A 
ATOM      4  C   UNL     1      10.226  20.988  29.237  1.00  0.00     0.121 A 
ATOM      5  N   UNL     1      10.252  20.077  30.261  1.00  0.00    -0.240 N 
ENDROOT
BRANCH   5   6
ATOM      6  C   UNL     1      11.362  19.780  31.104  1.00  0.00     0.065 A 
ATOM      7  C   UNL     1      13.599  19.186  32.697  1.00  0.00    -0.003 A 
ATOM      8  C   UNL     1      13.382  20.495  32.257  1.00  0.00     0.012 A 
ATOM      9  C   UNL     1      12.705  18.172  32.330  1.00  0.00     0.012 A 
ATOM     10  C   UNL     1      12.265  20.791  31.474  1.00  0.00     0.029 A 
ATOM     11  C   UNL     1      11.585  18.467  31.543  1.00  0.00     0.029 A 
BRANCH   7  12
ATOM     12  C   UNL     1      14.795  18.832  33.500  1.00  0.00     0.071 C 
ATOM     13  O   UNL     1      15.627  19.649  33.844  1.00  0.00    -0.545 OA
ATOM     14  O   UNL     1      14.880  17.516  33.791  1.00  0.00    -0.545 OA
ENDBRANCH   7  12
ENDBRANCH   5   6
BRANCH   2  15
ATOM     15  C   UNL     1       6.880  19.506  29.252  1.00  0.00     0.003 A 
ATOM     16  C   UNL     1       6.442  18.937  28.046  1.00  0.00     0.013 A 
ATOM     17  C   UNL     1       5.954  19.641  30.302  1.00  0.00     0.013 A 
ATOM     18  C   UNL     1       5.111  18.538  27.889  1.00  0.00     0.040 A 
ATOM     19  C   UNL     1       4.621  19.254  30.141  1.00  0.00     0.040 A 
ATOM     20  C   UNL     1       4.210  18.705  28.936  1.00  0.00     0.123 A 
ATOM     21  F   UNL     1       2.936  18.325  28.784  1.00  0.00    -0.207 F 
ENDBRANCH   2  15
BRANCH   3  22
ATOM     22  C   UNL     1       8.573  21.628  27.405  1.00  0.00     0.152 C 
BRANCH  22  23
ATOM     23  N   UNL     1       7.766  22.822  27.661  1.00  0.00    -0.381 N 
ATOM     24  H   UNL     1       8.178  23.715  27.705  1.00  0.00     0.160 HD
BRANCH  23  25
ATOM     25  C   UNL     1       6.388  22.653  27.840  1.00  0.00     0.037 A 
ATOM     26  C   UNL     1       5.611  22.213  26.760  1.00  0.00     0.046 A 
ATOM     27  C   UNL     1       5.721  23.028  29.014  1.00  0.00     0.046 A 
ATOM     28  C   UNL     1       4.227  22.065  26.887  1.00  0.00     0.044 A 
ATOM     29  C   UNL     1       4.339  22.879  29.133  1.00  0.00     0.044 A 
ATOM     30  C   UNL     1       3.584  22.385  28.077  1.00  0.00     0.041 A 
ATOM     31  Cl  UNL     1       3.308  21.476  25.557  1.00  0.00    -0.084 Cl
ATOM     32  Cl  UNL     1       3.565  23.315  30.608  1.00  0.00    -0.084 Cl
ENDBRANCH  23  25
ENDBRANCH  22  23
ENDBRANCH   3  22
TORSDOF 6
ENDMDL
MODEL 7
REMARK VINA RESULT:    -6.911      2.297      4.124
REMARK INTER + INTRA:         -10.552
REMARK INTER:                  -8.253
REMARK INTRA:                  -2.299
REMARK UNBOUND:                -1.216
REMARK SMILES O=C([O-])c1ccc(-n2cc(CNc3cc(Cl)cc(Cl)c3)c(-c3ccc(F)cc3)n2)cc1
REMARK SMILES IDX 29 1 21 2 10 3 9 4 8 5 7 6 4 7 31 8 5 9 30 10 6 11 2 12 1 13
REMARK SMILES IDX 3 14 22 15 28 16 23 17 27 18 24 19 25 20 26 21 11 22 12 23
REMARK SMILES IDX 13 25 14 26 20 27 15 28 18 29 17 30 16 31 19 32
REMARK H PARENT 12 24
ROOT
ATOM      1  N   UNL     1       8.979  19.613  30.429  1.00  0.00    -0.168 NA
ATOM      2  C   UNL     1       8.257  20.287  29.515  1.00  0.00     0.098 A 
ATOM      3  C   UNL     1       9.089  21.189  28.788  1.00  0.00     0.018 A 
ATOM      4  C   UNL     1      10.324  21.085  29.384  1.00  0.00     0.121 A 
ATOM      5  N   UNL     1      10.237  20.112  30.347  1.00  0.00    -0.240 N 
ENDROOT
BRANCH   5   6
ATOM      6  C   UNL     1      11.303  19.623  31.156  1.00  0.00     0.065 A 
ATOM      7  C   UNL     1      13.449  18.642  32.681  1.00  0.00    -0.003 A 
ATOM      8  C   UNL     1      13.446  19.972  32.255  1.00  0.00     0.012 A 
ATOM      9  C   UNL     1      12.386  17.797  32.335  1.00  0.00     0.012 A 
ATOM     10  C   UNL     1      12.374  20.462  31.506  1.00  0.00     0.029 A 
ATOM     11  C   UNL     1      11.311  18.286  31.581  1.00  0.00     0.029 A 
BRANCH   7  12
ATOM     12  C   UNL     1      14.589  18.081  33.448  1.00  0.00     0.071 C 
ATOM     13  O   UNL     1      14.461  17.195  34.271  1.00  0.00    -0.545 OA
ATOM     14  O   UNL     1      15.772  18.664  33.160  1.00  0.00    -0.545 OA
ENDBRANCH   7  12
ENDBRANCH   5   6
BRANCH   2  15
ATOM     15  C   UNL     1       6.817  20.040  29.341  1.00  0.00     0.003 A 
ATOM     16  C   UNL     1       6.347  18.770  28.974  1.00  0.00     0.013 A 
ATOM     17  C   UNL     1       5.878  21.067  29.544  1.00  0.00     0.013 A 
ATOM     18  C   UNL     1       4.978  18.542  28.792  1.00  0.00     0.040 A 
ATOM     19  C   UNL     1       4.512  20.843  29.350  1.00  0.00     0.040 A 
ATOM     20  C   UNL     1       4.074  19.582  28.976  1.00  0.00     0.123 A 
ATOM     21  F   UNL     1       2.765  19.365  28.799  1.00  0.00    -0.207 F 
ENDBRANCH   2  15
BRANCH   3  22
ATOM     22  C   UNL     1       8.760  22.048  27.617  1.00  0.00     0.152 C 
BRANCH  22  23
ATOM     23  N   UNL     1       8.555  21.315  26.367  1.00  0.00    -0.381 N 
ATOM     24  H   UNL     1       9.318  21.027  25.816  1.00  0.00     0.160 HD
BRANCH  23  25
ATOM     25  C   UNL     1       7.240  21.035  25.981  1.00  0.00     0.037 A 
ATOM     26  C   UNL     1       6.263  22.031  26.124  1.00  0.00     0.046 A 
ATOM     27  C   UNL     1       6.819  19.762  25.575  1.00  0.00     0.046 A 
ATOM     28  C   UNL     1       4.931  21.781  25.781  1.00  0.00     0.044 A 
ATOM     29  C   UNL     1       5.487  19.519  25.237  1.00  0.00     0.044 A 
ATOM     30  C   UNL     1       4.537  20.529  25.325  1.00  0.00     0.041 A 
ATOM     31  Cl  UNL     1       3.766  23.039  25.923  1.00  0.00    -0.084 Cl
ATOM     32  Cl  UNL     1       5.021  17.949  24.706  1.00  0.00    -0.084 Cl
ENDBRANCH  23  25
ENDBRANCH  22  23
ENDBRANCH   3  22
TORSDOF 6
ENDMDL
MODEL 8
REMARK VINA RESULT:    -6.890      2.290      4.167
REMARK INTER + INTRA:         -10.523
REMARK INTER:                  -8.304
REMARK INTRA:                  -2.218
REMARK UNBOUND:                -1.216
REMARK SMILES O=C([O-])c1ccc(-n2cc(CNc3cc(Cl)cc(Cl)c3)c(-c3ccc(F)cc3)n2)cc1
REMARK SMILES IDX 29 1 21 2 10 3 9 4 8 5 7 6 4 7 31 8 5 9 30 10 6 11 2 12 1 13
REMARK SMILES IDX 3 14 22 15 28 16 23 17 27 18 24 19 25 20 26 21 11 22 12 23
REMARK SMILES IDX 13 25 14 26 20 27 15 28 18 29 17 30 16 31 19 32
REMARK H PARENT 12 24
ROOT
ATOM      1  N   UNL     1       8.928  19.639  30.405  1.00  0.00    -0.168 NA
ATOM      2  C   UNL     1       8.218  20.300  29.474  1.00  0.00     0.098 A 
ATOM      3  C   UNL     1       9.064  21.172  28.727  1.00  0.00     0.018 A 
ATOM      4  C   UNL     1      10.296  21.066  29.328  1.00  0.00     0.121 A 
ATOM      5  N   UNL     1      10.193  20.118  30.314  1.00  0.00    -0.240 N 
ENDROOT
BRANCH   5   6
ATOM      6  C   UNL     1      11.251  19.633  31.137  1.00  0.00     0.065 A 
ATOM      7  C   UNL     1      13.381  18.663  32.691  1.00  0.00    -0.003 A 
ATOM      8  C   UNL     1      13.370  19.997  32.276  1.00  0.00     0.012 A 
ATOM      9  C   UNL     1      12.334  17.810  32.319  1.00  0.00     0.012 A 
ATOM     10  C   UNL     1      12.307  20.481  31.512  1.00  0.00     0.029 A 
ATOM     11  C   UNL     1      11.267  18.293  31.551  1.00  0.00     0.029 A 
BRANCH   7  12
ATOM     12  C   UNL     1      14.514  18.108  33.472  1.00  0.00     0.071 C 
ATOM     13  O   UNL     1      15.675  18.387  33.242  1.00  0.00    -0.545 OA
ATOM     14  O   UNL     1      14.132  17.252  34.443  1.00  0.00    -0.545 OA
ENDBRANCH   7  12
ENDBRANCH   5   6
BRANCH   2  15
ATOM     15  C   UNL     1       6.775  20.069  29.302  1.00  0.00     0.003 A 
ATOM     16  C   UNL     1       6.288  18.800  28.955  1.00  0.00     0.013 A 
ATOM     17  C   UNL     1       5.849  21.112  29.487  1.00  0.00     0.013 A 
ATOM     18  C   UNL     1       4.917  18.587  28.776  1.00  0.00     0.040 A 
ATOM     19  C   UNL     1       4.481  20.903  29.296  1.00  0.00     0.040 A 
ATOM     20  C   UNL     1       4.026  19.642  28.943  1.00  0.00     0.123 A 
ATOM     21  F   UNL     1       2.715  19.439  28.767  1.00  0.00    -0.207 F 
ENDBRANCH   2  15
BRANCH   3  22
ATOM     22  C   UNL     1       8.749  22.007  27.535  1.00  0.00     0.152 C 
BRANCH  22  23
ATOM     23  N   UNL     1       8.469  21.243  26.318  1.00  0.00    -0.381 N 
ATOM     24  H   UNL     1       9.199  20.922  25.740  1.00  0.00     0.160 HD
BRANCH  23  25
ATOM     25  C   UNL     1       7.131  20.985  26.002  1.00  0.00     0.037 A 
ATOM     26  C   UNL     1       6.773  19.706  25.553  1.00  0.00     0.046 A 
ATOM     27  C   UNL     1       6.146  21.981  25.987  1.00  0.00     0.046 A 
ATOM     28  C   UNL     1       5.453  19.417  25.195  1.00  0.00     0.044 A 
ATOM     29  C   UNL     1       4.830  21.686  25.626  1.00  0.00     0.044 A 
ATOM     30  C   UNL     1       4.472  20.401  25.240  1.00  0.00     0.041 A 
ATOM     31  Cl  UNL     1       5.037  17.824  24.695  1.00  0.00    -0.084 Cl
ATOM     32  Cl  UNL     1       3.643  22.932  25.660  1.00  0.00    -0.084 Cl
ENDBRANCH  23  25
ENDBRANCH  22  23
ENDBRANCH   3  22
TORSDOF 6
ENDMDL
MODEL 9
REMARK VINA RESULT:    -6.748      7.724     11.380
REMARK INTER + INTRA:         -10.331
REMARK INTER:                  -9.217
REMARK INTRA:                  -1.114
REMARK UNBOUND:                -1.216
REMARK SMILES O=C([O-])c1ccc(-n2cc(CNc3cc(Cl)cc(Cl)c3)c(-c3ccc(F)cc3)n2)cc1
REMARK SMILES IDX 29 1 21 2 10 3 9 4 8 5 7 6 4 7 31 8 5 9 30 10 6 11 2 12 1 13
REMARK SMILES IDX 3 14 22 15 28 16 23 17 27 18 24 19 25 20 26 21 11 22 12 23
REMARK SMILES IDX 13 25 14 26 20 27 15 28 18 29 17 30 16 31 19 32
REMARK H PARENT 12 24
ROOT
ATOM      1  N   UNL     1      11.868  15.582  34.548  1.00  0.00    -0.168 NA
ATOM      2  C   UNL     1      13.024  16.265  34.634  1.00  0.00     0.098 A 
ATOM      3  C   UNL     1      13.163  17.153  33.526  1.00  0.00     0.018 A 
ATOM      4  C   UNL     1      12.075  16.891  32.728  1.00  0.00     0.121 A 
ATOM      5  N   UNL     1      11.300  15.965  33.378  1.00  0.00    -0.240 N 
ENDROOT
BRANCH   5   6
ATOM      6  C   UNL     1      10.037  15.464  32.947  1.00  0.00     0.065 A 
ATOM      7  C   UNL     1       7.516  14.557  32.100  1.00  0.00    -0.003 A 
ATOM      8  C   UNL     1       8.433  15.045  31.166  1.00  0.00     0.012 A 
ATOM      9  C   UNL     1       7.854  14.534  33.460  1.00  0.00     0.012 A 
ATOM     10  C   UNL     1       9.689  15.486  31.586  1.00  0.00     0.029 A 
ATOM     11  C   UNL     1       9.113  14.978  33.883  1.00  0.00     0.029 A 
BRANCH   7  12
ATOM     12  C   UNL     1       6.161  14.114  31.691  1.00  0.00     0.071 C 
ATOM     13  O   UNL     1       5.892  13.771  30.556  1.00  0.00    -0.545 OA
ATOM     14  O   UNL     1       5.256  14.149  32.692  1.00  0.00    -0.545 OA
ENDBRANCH   7  12
ENDBRANCH   5   6
BRANCH   2  15
ATOM     15  C   UNL     1      13.944  16.077  35.768  1.00  0.00     0.003 A 
ATOM     16  C   UNL     1      15.124  15.333  35.617  1.00  0.00     0.013 A 
ATOM     17  C   UNL     1      13.666  16.642  37.025  1.00  0.00     0.013 A 
ATOM     18  C   UNL     1      15.988  15.140  36.701  1.00  0.00     0.040 A 
ATOM     19  C   UNL     1      14.522  16.440  38.111  1.00  0.00     0.040 A 
ATOM     20  C   UNL     1      15.676  15.691  37.940  1.00  0.00     0.123 A 
ATOM     21  F   UNL     1      16.501  15.504  38.977  1.00  0.00    -0.207 F 
ENDBRANCH   2  15
BRANCH   3  22
ATOM     22  C   UNL     1      14.209  18.179  33.259  1.00  0.00     0.152 C 
BRANCH  22  23
ATOM     23  N   UNL     1      14.830  18.738  34.461  1.00  0.00    -0.381 N 
ATOM     24  H   UNL     1      15.531  18.245  34.947  1.00  0.00     0.160 HD
BRANCH  23  25
ATOM     25  C   UNL     1      14.396  19.994  34.898  1.00  0.00     0.037 A 
ATOM     26  C   UNL     1      14.215  20.211  36.271  1.00  0.00     0.046 A 
ATOM     27  C   UNL     1      14.005  21.013  34.019  1.00  0.00     0.046 A 
ATOM     28  C   UNL     1      13.750  21.442  36.745  1.00  0.00     0.044 A 
ATOM     29  C   UNL     1      13.540  22.238  34.500  1.00  0.00     0.044 A 
ATOM     30  C   UNL     1      13.422  22.465  35.865  1.00  0.00     0.041 A 
ATOM     31  Cl  UNL     1      13.586  21.692  38.440  1.00  0.00    -0.084 Cl
ATOM     32  Cl  UNL     1      13.109  23.476  33.385  1.00  0.00    -0.084 Cl
ENDBRANCH  23  25
ENDBRANCH  22  23
ENDBRANCH   3  22
TORSDOF 6
ENDMDL
MODEL 10
REMARK VINA RESULT:    -6.697      5.051      8.313
REMARK INTER + INTRA:         -10.262
REMARK INTER:                  -9.586
REMARK INTRA:                  -0.676
REMARK UNBOUND:                -1.216
REMARK SMILES O=C([O-])c1ccc(-n2cc(CNc3cc(Cl)cc(Cl)c3)c(-c3ccc(F)cc3)n2)cc1
REMARK SMILES IDX 29 1 21 2 10 3 9 4 8 5 7 6 4 7 31 8 5 9 30 10 6 11 2 12 1 13
REMARK SMILES IDX 3 14 22 15 28 16 23 17 27 18 24 19 25 20 26 21 11 22 12 23
REMARK SMILES IDX 13 25 14 26 20 27 15 28 18 29 17 30 16 31 19 32
REMARK H PARENT 12 24
ROOT
ATOM      1  N   UNL     1       7.016  19.810  27.833  1.00  0.00    -0.168 NA
ATOM      2  C   UNL     1       8.194  20.421  28.057  1.00  0.00     0.098 A 
ATOM      3  C   UNL     1       8.674  20.115  29.365  1.00  0.00     0.018 A 
ATOM      4  C   UNL     1       7.673  19.368  29.941  1.00  0.00     0.121 A 
ATOM      5  N   UNL     1       6.703  19.176  28.990  1.00  0.00    -0.240 N 
ENDROOT
BRANCH   5   6
ATOM      6  C   UNL     1       5.522  18.392  29.132  1.00  0.00     0.065 A 
ATOM      7  C   UNL     1       3.187  16.871  29.492  1.00  0.00    -0.003 A 
ATOM      8  C   UNL     1       3.094  18.228  29.170  1.00  0.00     0.012 A 
ATOM      9  C   UNL     1       4.446  16.277  29.647  1.00  0.00     0.012 A 
ATOM     10  C   UNL     1       4.255  18.981  28.981  1.00  0.00     0.029 A 
ATOM     11  C   UNL     1       5.611  17.031  29.460  1.00  0.00     0.029 A 
BRANCH   7  12
ATOM     12  C   UNL     1       1.974  16.053  29.734  1.00  0.00     0.071 C 
ATOM     13  O   UNL     1       1.385  15.464  28.848  1.00  0.00    -0.545 OA
ATOM     14  O   UNL     1       1.576  16.044  31.025  1.00  0.00    -0.545 OA
ENDBRANCH   7  12
ENDBRANCH   5   6
BRANCH   2  15
ATOM     15  C   UNL     1       8.836  21.249  27.025  1.00  0.00     0.003 A 
ATOM     16  C   UNL     1       8.665  20.959  25.663  1.00  0.00     0.013 A 
ATOM     17  C   UNL     1       9.632  22.354  27.377  1.00  0.00     0.013 A 
ATOM     18  C   UNL     1       9.291  21.737  24.684  1.00  0.00     0.040 A 
ATOM     19  C   UNL     1      10.268  23.125  26.400  1.00  0.00     0.040 A 
ATOM     20  C   UNL     1      10.092  22.810  25.061  1.00  0.00     0.123 A 
ATOM     21  F   UNL     1      10.694  23.552  24.125  1.00  0.00    -0.207 F 
ENDBRANCH   2  15
BRANCH   3  22
ATOM     22  C   UNL     1       9.972  20.466  30.004  1.00  0.00     0.152 C 
BRANCH  22  23
ATOM     23  N   UNL     1      10.614  19.361  30.719  1.00  0.00    -0.381 N 
ATOM     24  H   UNL     1      10.214  18.462  30.728  1.00  0.00     0.160 HD
BRANCH  23  25
ATOM     25  C   UNL     1      11.814  19.625  31.388  1.00  0.00     0.037 A 
ATOM     26  C   UNL     1      12.443  18.588  32.090  1.00  0.00     0.046 A 
ATOM     27  C   UNL     1      12.356  20.912  31.502  1.00  0.00     0.046 A 
ATOM     28  C   UNL     1      13.625  18.818  32.800  1.00  0.00     0.044 A 
ATOM     29  C   UNL     1      13.535  21.135  32.214  1.00  0.00     0.044 A 
ATOM     30  C   UNL     1      14.184  20.089  32.857  1.00  0.00     0.041 A 
ATOM     31  Cl  UNL     1      14.398  17.512  33.611  1.00  0.00    -0.084 Cl
ATOM     32  Cl  UNL     1      14.188  22.726  32.294  1.00  0.00    -0.084 Cl
ENDBRANCH  23  25
ENDBRANCH  22  23
ENDBRANCH   3  22
TORSDOF 6
ENDMDL
MODEL 11
REMARK VINA RESULT:    -6.668      2.221      3.017
REMARK INTER + INTRA:         -10.224
REMARK INTER:                  -8.036
REMARK INTRA:                  -2.188
REMARK UNBOUND:                -1.216
REMARK SMILES O=C([O-])c1ccc(-n2cc(CNc3cc(Cl)cc(Cl)c3)c(-c3ccc(F)cc3)n2)cc1
REMARK SMILES IDX 29 1 21 2 10 3 9 4 8 5 7 6 4 7 31 8 5 9 30 10 6 11 2 12 1 13
REMARK SMILES IDX 3 14 22 15 28 16 23 17 27 18 24 19 25 20 26 21 11 22 12 23
REMARK SMILES IDX 13 25 14 26 20 27 15 28 18 29 17 30 16 31 19 32
REMARK H PARENT 12 24
ROOT
ATOM      1  N   UNL     1       9.988  20.771  29.218  1.00  0.00    -0.168 NA
ATOM      2  C   UNL     1       8.712  20.691  28.798  1.00  0.00     0.098 A 
ATOM      3  C   UNL     1       7.947  19.874  29.682  1.00  0.00     0.018 A 
ATOM      4  C   UNL     1       8.857  19.394  30.594  1.00  0.00     0.121 A 
ATOM      5  N   UNL     1      10.068  19.971  30.310  1.00  0.00    -0.240 N 
ENDROOT
BRANCH   5   6
ATOM      6  C   UNL     1      11.275  19.817  31.052  1.00  0.00     0.065 A 
ATOM      7  C   UNL     1      13.696  19.502  32.442  1.00  0.00    -0.003 A 
ATOM      8  C   UNL     1      13.330  20.758  31.951  1.00  0.00     0.012 A 
ATOM      9  C   UNL     1      12.859  18.400  32.227  1.00  0.00     0.012 A 
ATOM     10  C   UNL     1      12.122  20.916  31.270  1.00  0.00     0.029 A 
ATOM     11  C   UNL     1      11.647  18.556  31.541  1.00  0.00     0.029 A 
BRANCH   7  12
ATOM     12  C   UNL     1      14.989  19.294  33.139  1.00  0.00     0.071 C 
ATOM     13  O   UNL     1      15.323  19.931  34.119  1.00  0.00    -0.545 OA
ATOM     14  O   UNL     1      15.765  18.347  32.567  1.00  0.00    -0.545 OA
ENDBRANCH   7  12
ENDBRANCH   5   6
BRANCH   2  15
ATOM     15  C   UNL     1       8.254  21.406  27.597  1.00  0.00     0.003 A 
ATOM     16  C   UNL     1       7.577  22.631  27.706  1.00  0.00     0.013 A 
ATOM     17  C   UNL     1       8.487  20.885  26.312  1.00  0.00     0.013 A 
ATOM     18  C   UNL     1       7.127  23.300  26.563  1.00  0.00     0.040 A 
ATOM     19  C   UNL     1       8.027  21.546  25.171  1.00  0.00     0.040 A 
ATOM     20  C   UNL     1       7.351  22.749  25.305  1.00  0.00     0.123 A 
ATOM     21  F   UNL     1       6.917  23.388  24.213  1.00  0.00    -0.207 F 
ENDBRANCH   2  15
BRANCH   3  22
ATOM     22  C   UNL     1       6.484  19.595  29.686  1.00  0.00     0.152 C 
BRANCH  22  23
ATOM     23  N   UNL     1       5.992  18.925  28.481  1.00  0.00    -0.381 N 
ATOM     24  H   UNL     1       6.182  17.973  28.315  1.00  0.00     0.160 HD
BRANCH  23  25
ATOM     25  C   UNL     1       5.243  19.681  27.572  1.00  0.00     0.037 A 
ATOM     26  C   UNL     1       5.264  19.330  26.216  1.00  0.00     0.046 A 
ATOM     27  C   UNL     1       4.571  20.857  27.931  1.00  0.00     0.046 A 
ATOM     28  C   UNL     1       4.557  20.079  25.271  1.00  0.00     0.044 A 
ATOM     29  C   UNL     1       3.869  21.602  26.983  1.00  0.00     0.044 A 
ATOM     30  C   UNL     1       3.846  21.212  25.650  1.00  0.00     0.041 A 
ATOM     31  Cl  UNL     1       4.564  19.593  23.621  1.00  0.00    -0.084 Cl
ATOM     32  Cl  UNL     1       3.024  23.019  27.475  1.00  0.00    -0.084 Cl
ENDBRANCH  23  25
ENDBRANCH  22  23
ENDBRANCH   3  22
TORSDOF 6
ENDMDL
MODEL 12
REMARK VINA RESULT:    -6.405      6.136     10.222
REMARK INTER + INTRA:          -9.868
REMARK INTER:                  -8.866
REMARK INTRA:                  -1.002
REMARK UNBOUND:                -1.216
REMARK SMILES O=C([O-])c1ccc(-n2cc(CNc3cc(Cl)cc(Cl)c3)c(-c3ccc(F)cc3)n2)cc1
REMARK SMILES IDX 29 1 21 2 10 3 9 4 8 5 7 6 4 7 31 8 5 9 30 10 6 11 2 12 1 13
REMARK SMILES IDX 3 14 22 15 28 16 23 17 27 18 24 19 25 20 26 21 11 22 12 23
REMARK SMILES IDX 13 25 14 26 20 27 15 28 18 29 17 30 16 31 19 32
REMARK H PARENT 12 24
ROOT
ATOM      1  N   UNL     1      11.255  18.789  31.454  1.00  0.00    -0.168 NA
ATOM      2  C   UNL     1      12.390  18.987  32.148  1.00  0.00     0.098 A 
ATOM      3  C   UNL     1      12.863  20.320  31.961  1.00  0.00     0.018 A 
ATOM      4  C   UNL     1      12.001  20.872  31.043  1.00  0.00     0.121 A 
ATOM      5  N   UNL     1      11.029  19.942  30.778  1.00  0.00    -0.240 N 
ENDROOT
BRANCH   5   6
ATOM      6  C   UNL     1       9.890  20.122  29.941  1.00  0.00     0.065 A 
ATOM      7  C   UNL     1       7.659  20.400  28.256  1.00  0.00    -0.003 A 
ATOM      8  C   UNL     1       7.541  19.705  29.462  1.00  0.00     0.012 A 
ATOM      9  C   UNL     1       8.895  20.946  27.885  1.00  0.00     0.012 A 
ATOM     10  C   UNL     1       8.647  19.575  30.303  1.00  0.00     0.029 A 
ATOM     11  C   UNL     1      10.007  20.815  28.728  1.00  0.00     0.029 A 
BRANCH   7  12
ATOM     12  C   UNL     1       6.513  20.525  27.323  1.00  0.00     0.071 C 
ATOM     13  O   UNL     1       5.613  21.327  27.484  1.00  0.00    -0.545 OA
ATOM     14  O   UNL     1       6.555  19.651  26.294  1.00  0.00    -0.545 OA
ENDBRANCH   7  12
ENDBRANCH   5   6
BRANCH   2  15
ATOM     15  C   UNL     1      12.976  17.924  32.981  1.00  0.00     0.003 A 
ATOM     16  C   UNL     1      12.244  16.766  33.283  1.00  0.00     0.013 A 
ATOM     17  C   UNL     1      14.281  18.041  33.490  1.00  0.00     0.013 A 
ATOM     18  C   UNL     1      12.796  15.765  34.090  1.00  0.00     0.040 A 
ATOM     19  C   UNL     1      14.829  17.048  34.306  1.00  0.00     0.040 A 
ATOM     20  C   UNL     1      14.082  15.918  34.599  1.00  0.00     0.123 A 
ATOM     21  F   UNL     1      14.608  14.962  35.374  1.00  0.00    -0.207 F 
ENDBRANCH   2  15
BRANCH   3  22
ATOM     22  C   UNL     1      14.004  21.021  32.612  1.00  0.00     0.152 C 
BRANCH  22  23
ATOM     23  N   UNL     1      13.625  22.198  33.395  1.00  0.00    -0.381 N 
ATOM     24  H   UNL     1      13.486  23.072  32.963  1.00  0.00     0.160 HD
BRANCH  23  25
ATOM     25  C   UNL     1      13.466  22.042  34.776  1.00  0.00     0.037 A 
ATOM     26  C   UNL     1      14.149  21.005  35.426  1.00  0.00     0.046 A 
ATOM     27  C   UNL     1      12.553  22.794  35.527  1.00  0.00     0.046 A 
ATOM     28  C   UNL     1      13.991  20.795  36.799  1.00  0.00     0.044 A 
ATOM     29  C   UNL     1      12.399  22.577  36.897  1.00  0.00     0.044 A 
ATOM     30  C   UNL     1      13.125  21.586  37.545  1.00  0.00     0.041 A 
ATOM     31  Cl  UNL     1      14.881  19.543  37.576  1.00  0.00    -0.084 Cl
ATOM     32  Cl  UNL     1      11.295  23.551  37.790  1.00  0.00    -0.084 Cl
ENDBRANCH  23  25
ENDBRANCH  22  23
ENDBRANCH   3  22
TORSDOF 6
ENDMDL
MODEL 13
REMARK VINA RESULT:    -6.342      6.161     10.198
REMARK INTER + INTRA:          -9.783
REMARK INTER:                  -8.796
REMARK INTRA:                  -0.987
REMARK UNBOUND:                -1.216
REMARK SMILES O=C([O-])c1ccc(-n2cc(CNc3cc(Cl)cc(Cl)c3)c(-c3ccc(F)cc3)n2)cc1
REMARK SMILES IDX 29 1 21 2 10 3 9 4 8 5 7 6 4 7 31 8 5 9 30 10 6 11 2 12 1 13
REMARK SMILES IDX 3 14 22 15 28 16 23 17 27 18 24 19 25 20 26 21 11 22 12 23
REMARK SMILES IDX 13 25 14 26 20 27 15 28 18 29 17 30 16 31 19 32
REMARK H PARENT 12 24
ROOT
ATOM      1  N   UNL     1      11.251  18.791  31.431  1.00  0.00    -0.168 NA
ATOM      2  C   UNL     1      12.385  19.044  32.111  1.00  0.00     0.098 A 
ATOM      3  C   UNL     1      12.782  20.402  31.929  1.00  0.00     0.018 A 
ATOM      4  C   UNL     1      11.878  20.915  31.029  1.00  0.00     0.121 A 
ATOM      5  N   UNL     1      10.954  19.936  30.769  1.00  0.00    -0.240 N 
ENDROOT
BRANCH   5   6
ATOM      6  C   UNL     1       9.795  20.060  29.950  1.00  0.00     0.065 A 
ATOM      7  C   UNL     1       7.526  20.230  28.301  1.00  0.00    -0.003 A 
ATOM      8  C   UNL     1       7.449  19.569  29.530  1.00  0.00     0.012 A 
ATOM      9  C   UNL     1       8.739  20.796  27.890  1.00  0.00     0.012 A 
ATOM     10  C   UNL     1       8.574  19.494  30.353  1.00  0.00     0.029 A 
ATOM     11  C   UNL     1       9.870  20.719  28.714  1.00  0.00     0.029 A 
BRANCH   7  12
ATOM     12  C   UNL     1       6.359  20.297  27.388  1.00  0.00     0.071 C 
ATOM     13  O   UNL     1       5.455  21.099  27.527  1.00  0.00    -0.545 OA
ATOM     14  O   UNL     1       6.387  19.371  26.406  1.00  0.00    -0.545 OA
ENDBRANCH   7  12
ENDBRANCH   5   6
BRANCH   2  15
ATOM     15  C   UNL     1      13.038  18.008  32.926  1.00  0.00     0.003 A 
ATOM     16  C   UNL     1      12.363  16.823  33.255  1.00  0.00     0.013 A 
ATOM     17  C   UNL     1      14.355  18.177  33.389  1.00  0.00     0.013 A 
ATOM     18  C   UNL     1      12.981  15.847  34.045  1.00  0.00     0.040 A 
ATOM     19  C   UNL     1      14.968  17.209  34.188  1.00  0.00     0.040 A 
ATOM     20  C   UNL     1      14.276  16.051  34.509  1.00  0.00     0.123 A 
ATOM     21  F   UNL     1      14.865  15.119  35.268  1.00  0.00    -0.207 F 
ENDBRANCH   2  15
BRANCH   3  22
ATOM     22  C   UNL     1      13.893  21.158  32.571  1.00  0.00     0.152 C 
BRANCH  22  23
ATOM     23  N   UNL     1      13.458  22.250  33.444  1.00  0.00    -0.381 N 
ATOM     24  H   UNL     1      13.232  23.135  33.077  1.00  0.00     0.160 HD
BRANCH  23  25
ATOM     25  C   UNL     1      13.372  21.995  34.817  1.00  0.00     0.037 A 
ATOM     26  C   UNL     1      12.530  22.790  35.605  1.00  0.00     0.046 A 
ATOM     27  C   UNL     1      14.189  21.062  35.470  1.00  0.00     0.046 A 
ATOM     28  C   UNL     1      12.442  22.590  36.986  1.00  0.00     0.044 A 
ATOM     29  C   UNL     1      14.098  20.869  36.849  1.00  0.00     0.044 A 
ATOM     30  C   UNL     1      13.215  21.621  37.614  1.00  0.00     0.041 A 
ATOM     31  Cl  UNL     1      11.362  23.552  37.918  1.00  0.00    -0.084 Cl
ATOM     32  Cl  UNL     1      15.091  19.684  37.606  1.00  0.00    -0.084 Cl
ENDBRANCH  23  25
ENDBRANCH  22  23
ENDBRANCH   3  22
TORSDOF 6
ENDMDL
MODEL 14
REMARK VINA RESULT:    -6.153      2.537      4.821
REMARK INTER + INTRA:          -9.528
REMARK INTER:                  -7.844
REMARK INTRA:                  -1.684
REMARK UNBOUND:                -1.216
REMARK SMILES O=C([O-])c1ccc(-n2cc(CNc3cc(Cl)cc(Cl)c3)c(-c3ccc(F)cc3)n2)cc1
REMARK SMILES IDX 29 1 21 2 10 3 9 4 8 5 7 6 4 7 31 8 5 9 30 10 6 11 2 12 1 13
REMARK SMILES IDX 3 14 22 15 28 16 23 17 27 18 24 19 25 20 26 21 11 22 12 23
REMARK SMILES IDX 13 25 14 26 20 27 15 28 18 29 17 30 16 31 19 32
REMARK H PARENT 12 24
ROOT
ATOM      1  N   UNL     1       7.806  18.751  29.919  1.00  0.00    -0.168 NA
ATOM      2  C   UNL     1       6.621  19.232  29.498  1.00  0.00     0.098 A 
ATOM      3  C   UNL     1       6.645  20.658  29.468  1.00  0.00     0.018 A 
ATOM      4  C   UNL     1       7.872  21.001  29.985  1.00  0.00     0.121 A 
ATOM      5  N   UNL     1       8.559  19.837  30.220  1.00  0.00    -0.240 N 
ENDROOT
BRANCH   5   6
ATOM      6  C   UNL     1       9.902  19.725  30.683  1.00  0.00     0.065 A 
ATOM      7  C   UNL     1      12.522  19.513  31.675  1.00  0.00    -0.003 A 
ATOM      8  C   UNL     1      11.708  18.379  31.604  1.00  0.00     0.012 A 
ATOM      9  C   UNL     1      12.023  20.755  31.263  1.00  0.00     0.012 A 
ATOM     10  C   UNL     1      10.410  18.483  31.101  1.00  0.00     0.029 A 
ATOM     11  C   UNL     1      10.720  20.862  30.760  1.00  0.00     0.029 A 
BRANCH   7  12
ATOM     12  C   UNL     1      13.893  19.442  32.237  1.00  0.00     0.071 C 
ATOM     13  O   UNL     1      14.283  18.513  32.918  1.00  0.00    -0.545 OA
ATOM     14  O   UNL     1      14.655  20.517  31.940  1.00  0.00    -0.545 OA
ENDBRANCH   7  12
ENDBRANCH   5   6
BRANCH   2  15
ATOM     15  C   UNL     1       5.521  18.334  29.115  1.00  0.00     0.003 A 
ATOM     16  C   UNL     1       4.436  18.121  29.979  1.00  0.00     0.013 A 
ATOM     17  C   UNL     1       5.526  17.671  27.875  1.00  0.00     0.013 A 
ATOM     18  C   UNL     1       3.399  17.253  29.621  1.00  0.00     0.040 A 
ATOM     19  C   UNL     1       4.497  16.795  27.521  1.00  0.00     0.040 A 
ATOM     20  C   UNL     1       3.442  16.593  28.397  1.00  0.00     0.123 A 
ATOM     21  F   UNL     1       2.452  15.760  28.057  1.00  0.00    -0.207 F 
ENDBRANCH   2  15
BRANCH   3  22
ATOM     22  C   UNL     1       5.616  21.612  28.967  1.00  0.00     0.152 C 
BRANCH  22  23
ATOM     23  N   UNL     1       6.022  22.373  27.784  1.00  0.00    -0.381 N 
ATOM     24  H   UNL     1       6.093  23.355  27.811  1.00  0.00     0.160 HD
BRANCH  23  25
ATOM     25  C   UNL     1       6.303  21.661  26.614  1.00  0.00     0.037 A 
ATOM     26  C   UNL     1       7.537  21.857  25.979  1.00  0.00     0.046 A 
ATOM     27  C   UNL     1       5.359  20.853  25.968  1.00  0.00     0.046 A 
ATOM     28  C   UNL     1       7.844  21.191  24.789  1.00  0.00     0.044 A 
ATOM     29  C   UNL     1       5.671  20.192  24.779  1.00  0.00     0.044 A 
ATOM     30  C   UNL     1       6.918  20.346  24.188  1.00  0.00     0.041 A 
ATOM     31  Cl  UNL     1       9.386  21.417  24.060  1.00  0.00    -0.084 Cl
ATOM     32  Cl  UNL     1       4.493  19.177  24.040  1.00  0.00    -0.084 Cl
ENDBRANCH  23  25
ENDBRANCH  22  23
ENDBRANCH   3  22
TORSDOF 6
ENDMDL
MODEL 15
REMARK VINA RESULT:    -6.135      6.660     10.427
REMARK INTER + INTRA:          -9.503
REMARK INTER:                  -9.047
REMARK INTRA:                  -0.456
REMARK UNBOUND:                -1.216
REMARK SMILES O=C([O-])c1ccc(-n2cc(CNc3cc(Cl)cc(Cl)c3)c(-c3ccc(F)cc3)n2)cc1
REMARK SMILES IDX 29 1 21 2 10 3 9 4 8 5 7 6 4 7 31 8 5 9 30 10 6 11 2 12 1 13
REMARK SMILES IDX 3 14 22 15 28 16 23 17 27 18 24 19 25 20 26 21 11 22 12 23
REMARK SMILES IDX 13 25 14 26 20 27 15 28 18 29 17 30 16 31 19 32
REMARK H PARENT 12 24
ROOT
ATOM      1  N   UNL     1       9.782  16.764  31.687  1.00  0.00    -0.168 NA
ATOM      2  C   UNL     1      10.782  16.489  32.545  1.00  0.00     0.098 A 
ATOM      3  C   UNL     1      10.490  15.305  33.286  1.00  0.00     0.018 A 
ATOM      4  C   UNL     1       9.223  14.947  32.893  1.00  0.00     0.121 A 
ATOM      5  N   UNL     1       8.833  15.822  31.911  1.00  0.00    -0.240 N 
ENDROOT
BRANCH   5   6
ATOM      6  C   UNL     1       7.619  15.774  31.166  1.00  0.00     0.065 A 
ATOM      7  C   UNL     1       5.184  15.705  29.766  1.00  0.00    -0.003 A 
ATOM      8  C   UNL     1       5.898  16.902  29.867  1.00  0.00     0.012 A 
ATOM      9  C   UNL     1       5.681  14.545  30.375  1.00  0.00     0.012 A 
ATOM     10  C   UNL     1       7.113  16.933  30.554  1.00  0.00     0.029 A 
ATOM     11  C   UNL     1       6.898  14.575  31.067  1.00  0.00     0.029 A 
BRANCH   7  12
ATOM     12  C   UNL     1       3.874  15.646  29.073  1.00  0.00     0.071 C 
ATOM     13  O   UNL     1       3.740  15.882  27.888  1.00  0.00    -0.545 OA
ATOM     14  O   UNL     1       2.846  15.327  29.889  1.00  0.00    -0.545 OA
ENDBRANCH   7  12
ENDBRANCH   5   6
BRANCH   2  15
ATOM     15  C   UNL     1      11.984  17.333  32.618  1.00  0.00     0.003 A 
ATOM     16  C   UNL     1      12.079  18.512  31.863  1.00  0.00     0.013 A 
ATOM     17  C   UNL     1      13.063  16.984  33.449  1.00  0.00     0.013 A 
ATOM     18  C   UNL     1      13.231  19.304  31.921  1.00  0.00     0.040 A 
ATOM     19  C   UNL     1      14.219  17.767  33.498  1.00  0.00     0.040 A 
ATOM     20  C   UNL     1      14.293  18.922  32.734  1.00  0.00     0.123 A 
ATOM     21  F   UNL     1      15.396  19.678  32.786  1.00  0.00    -0.207 F 
ENDBRANCH   2  15
BRANCH   3  22
ATOM     22  C   UNL     1      11.342  14.560  34.255  1.00  0.00     0.152 C 
BRANCH  22  23
ATOM     23  N   UNL     1      11.402  15.156  35.591  1.00  0.00    -0.381 N 
ATOM     24  H   UNL     1      10.581  15.377  36.086  1.00  0.00     0.160 HD
BRANCH  23  25
ATOM     25  C   UNL     1      12.665  15.402  36.140  1.00  0.00     0.037 A 
ATOM     26  C   UNL     1      13.756  14.636  35.707  1.00  0.00     0.046 A 
ATOM     27  C   UNL     1      12.874  16.292  37.202  1.00  0.00     0.046 A 
ATOM     28  C   UNL     1      15.028  14.828  36.255  1.00  0.00     0.044 A 
ATOM     29  C   UNL     1      14.145  16.477  37.747  1.00  0.00     0.044 A 
ATOM     30  C   UNL     1      15.233  15.756  37.269  1.00  0.00     0.041 A 
ATOM     31  Cl  UNL     1      16.356  13.905  35.667  1.00  0.00    -0.084 Cl
ATOM     32  Cl  UNL     1      14.363  17.610  39.024  1.00  0.00    -0.084 Cl
ENDBRANCH  23  25
ENDBRANCH  22  23
ENDBRANCH   3  22
TORSDOF 6
ENDMDL
MODEL 16
REMARK VINA RESULT:    -5.992      2.416      2.792
REMARK INTER + INTRA:          -9.310
REMARK INTER:                  -7.564
REMARK INTRA:                  -1.746
REMARK UNBOUND:                -1.216
REMARK SMILES O=C([O-])c1ccc(-n2cc(CNc3cc(Cl)cc(Cl)c3)c(-c3ccc(F)cc3)n2)cc1
REMARK SMILES IDX 29 1 21 2 10 3 9 4 8 5 7 6 4 7 31 8 5 9 30 10 6 11 2 12 1 13
REMARK SMILES IDX 3 14 22 15 28 16 23 17 27 18 24 19 25 20 26 21 11 22 12 23
REMARK SMILES IDX 13 25 14 26 20 27 15 28 18 29 17 30 16 31 19 32
REMARK H PARENT 12 24
ROOT
ATOM      1  N   UNL     1      10.389  20.978  29.374  1.00  0.00    -0.168 NA
ATOM      2  C   UNL     1       9.174  20.778  28.831  1.00  0.00     0.098 A 
ATOM      3  C   UNL     1       8.431  19.837  29.604  1.00  0.00     0.018 A 
ATOM      4  C   UNL     1       9.304  19.417  30.579  1.00  0.00     0.121 A 
ATOM      5  N   UNL     1      10.461  20.138  30.436  1.00  0.00    -0.240 N 
ENDROOT
BRANCH   5   6
ATOM      6  C   UNL     1      11.606  20.081  31.283  1.00  0.00     0.065 A 
ATOM      7  C   UNL     1      13.912  19.967  32.884  1.00  0.00    -0.003 A 
ATOM      8  C   UNL     1      13.454  21.197  32.406  1.00  0.00     0.012 A 
ATOM      9  C   UNL     1      13.225  18.792  32.553  1.00  0.00     0.012 A 
ATOM     10  C   UNL     1      12.302  21.255  31.619  1.00  0.00     0.029 A 
ATOM     11  C   UNL     1      12.071  18.847  31.761  1.00  0.00     0.029 A 
BRANCH   7  12
ATOM     12  C   UNL     1      15.151  19.868  33.693  1.00  0.00     0.071 C 
ATOM     13  O   UNL     1      15.738  18.820  33.880  1.00  0.00    -0.545 OA
ATOM     14  O   UNL     1      15.550  21.047  34.218  1.00  0.00    -0.545 OA
ENDBRANCH   7  12
ENDBRANCH   5   6
BRANCH   2  15
ATOM     15  C   UNL     1       8.747  21.498  27.621  1.00  0.00     0.003 A 
ATOM     16  C   UNL     1       8.909  20.923  26.351  1.00  0.00     0.013 A 
ATOM     17  C   UNL     1       8.163  22.774  27.707  1.00  0.00     0.013 A 
ATOM     18  C   UNL     1       8.518  21.616  25.200  1.00  0.00     0.040 A 
ATOM     19  C   UNL     1       7.784  23.473  26.557  1.00  0.00     0.040 A 
ATOM     20  C   UNL     1       7.964  22.888  25.313  1.00  0.00     0.123 A 
ATOM     21  F   UNL     1       7.595  23.552  24.212  1.00  0.00    -0.207 F 
ENDBRANCH   2  15
BRANCH   3  22
ATOM     22  C   UNL     1       7.016  19.398  29.457  1.00  0.00     0.152 C 
BRANCH  22  23
ATOM     23  N   UNL     1       6.026  20.426  29.781  1.00  0.00    -0.381 N 
ATOM     24  H   UNL     1       6.001  20.845  30.672  1.00  0.00     0.160 HD
BRANCH  23  25
ATOM     25  C   UNL     1       5.114  20.794  28.785  1.00  0.00     0.037 A 
ATOM     26  C   UNL     1       3.853  21.273  29.162  1.00  0.00     0.046 A 
ATOM     27  C   UNL     1       5.352  20.585  27.420  1.00  0.00     0.046 A 
ATOM     28  C   UNL     1       2.902  21.620  28.197  1.00  0.00     0.044 A 
ATOM     29  C   UNL     1       4.398  20.930  26.463  1.00  0.00     0.044 A 
ATOM     30  C   UNL     1       3.172  21.462  26.843  1.00  0.00     0.041 A 
ATOM     31  Cl  UNL     1       1.379  22.251  28.692  1.00  0.00    -0.084 Cl
ATOM     32  Cl  UNL     1       4.748  20.693  24.794  1.00  0.00    -0.084 Cl
ENDBRANCH  23  25
ENDBRANCH  22  23
ENDBRANCH   3  22
TORSDOF 6
ENDMDL
MODEL 17
REMARK VINA RESULT:    -5.956      6.102     10.011
REMARK INTER + INTRA:          -9.261
REMARK INTER:                  -7.640
REMARK INTRA:                  -1.621
REMARK UNBOUND:                -1.216
REMARK SMILES O=C([O-])c1ccc(-n2cc(CNc3cc(Cl)cc(Cl)c3)c(-c3ccc(F)cc3)n2)cc1
REMARK SMILES IDX 29 1 21 2 10 3 9 4 8 5 7 6 4 7 31 8 5 9 30 10 6 11 2 12 1 13
REMARK SMILES IDX 3 14 22 15 28 16 23 17 27 18 24 19 25 20 26 21 11 22 12 23
REMARK SMILES IDX 13 25 14 26 20 27 15 28 18 29 17 30 16 31 19 32
REMARK H PARENT 12 24
ROOT
ATOM      1  N   UNL     1      11.486  20.827  31.102  1.00  0.00    -0.168 NA
ATOM      2  C   UNL     1      12.512  20.309  31.803  1.00  0.00     0.098 A 
ATOM      3  C   UNL     1      12.421  18.886  31.841  1.00  0.00     0.018 A 
ATOM      4  C   UNL     1      11.236  18.592  31.209  1.00  0.00     0.121 A 
ATOM      5  N   UNL     1      10.710  19.773  30.751  1.00  0.00    -0.240 N 
ENDROOT
BRANCH   5   6
ATOM      6  C   UNL     1       9.527  19.927  29.970  1.00  0.00     0.065 A 
ATOM      7  C   UNL     1       7.183  20.305  28.468  1.00  0.00    -0.003 A 
ATOM      8  C   UNL     1       8.394  20.842  28.021  1.00  0.00     0.012 A 
ATOM      9  C   UNL     1       7.141  19.591  29.672  1.00  0.00     0.012 A 
ATOM     10  C   UNL     1       9.560  20.644  28.762  1.00  0.00     0.029 A 
ATOM     11  C   UNL     1       8.310  19.394  30.419  1.00  0.00     0.029 A 
BRANCH   7  12
ATOM     12  C   UNL     1       5.920  20.527  27.722  1.00  0.00     0.071 C 
ATOM     13  O   UNL     1       5.881  21.069  26.634  1.00  0.00    -0.545 OA
ATOM     14  O   UNL     1       4.823  20.090  28.376  1.00  0.00    -0.545 OA
ENDBRANCH   7  12
ENDBRANCH   5   6
BRANCH   2  15
ATOM     15  C   UNL     1      13.552  21.169  32.389  1.00  0.00     0.003 A 
ATOM     16  C   UNL     1      14.868  21.134  31.903  1.00  0.00     0.013 A 
ATOM     17  C   UNL     1      13.253  22.050  33.443  1.00  0.00     0.013 A 
ATOM     18  C   UNL     1      15.860  21.939  32.474  1.00  0.00     0.040 A 
ATOM     19  C   UNL     1      14.245  22.846  34.021  1.00  0.00     0.040 A 
ATOM     20  C   UNL     1      15.540  22.784  33.531  1.00  0.00     0.123 A 
ATOM     21  F   UNL     1      16.490  23.552  34.079  1.00  0.00    -0.207 F 
ENDBRANCH   2  15
BRANCH   3  22
ATOM     22  C   UNL     1      13.380  17.891  32.395  1.00  0.00     0.152 C 
BRANCH  22  23
ATOM     23  N   UNL     1      12.988  17.326  33.687  1.00  0.00    -0.381 N 
ATOM     24  H   UNL     1      12.139  16.838  33.792  1.00  0.00     0.160 HD
BRANCH  23  25
ATOM     25  C   UNL     1      13.858  17.502  34.769  1.00  0.00     0.037 A 
ATOM     26  C   UNL     1      14.520  18.728  34.917  1.00  0.00     0.046 A 
ATOM     27  C   UNL     1      14.204  16.465  35.645  1.00  0.00     0.046 A 
ATOM     28  C   UNL     1      15.423  18.933  35.964  1.00  0.00     0.044 A 
ATOM     29  C   UNL     1      15.108  16.675  36.687  1.00  0.00     0.044 A 
ATOM     30  C   UNL     1      15.713  17.913  36.862  1.00  0.00     0.041 A 
ATOM     31  Cl  UNL     1      16.182  20.467  36.146  1.00  0.00    -0.084 Cl
ATOM     32  Cl  UNL     1      15.473  15.383  37.765  1.00  0.00    -0.084 Cl
ENDBRANCH  23  25
ENDBRANCH  22  23
ENDBRANCH   3  22
TORSDOF 6
ENDMDL
MODEL 18
REMARK VINA RESULT:    -5.944      5.813      9.507
REMARK INTER + INTRA:          -9.245
REMARK INTER:                  -8.332
REMARK INTRA:                  -0.913
REMARK UNBOUND:                -1.216
REMARK SMILES O=C([O-])c1ccc(-n2cc(CNc3cc(Cl)cc(Cl)c3)c(-c3ccc(F)cc3)n2)cc1
REMARK SMILES IDX 29 1 21 2 10 3 9 4 8 5 7 6 4 7 31 8 5 9 30 10 6 11 2 12 1 13
REMARK SMILES IDX 3 14 22 15 28 16 23 17 27 18 24 19 25 20 26 21 11 22 12 23
REMARK SMILES IDX 13 25 14 26 20 27 15 28 18 29 17 30 16 31 19 32
REMARK H PARENT 12 24
ROOT
ATOM      1  N   UNL     1      11.535  20.921  31.136  1.00  0.00    -0.168 NA
ATOM      2  C   UNL     1      12.548  20.382  31.839  1.00  0.00     0.098 A 
ATOM      3  C   UNL     1      12.453  18.958  31.839  1.00  0.00     0.018 A 
ATOM      4  C   UNL     1      11.278  18.685  31.179  1.00  0.00     0.121 A 
ATOM      5  N   UNL     1      10.762  19.879  30.743  1.00  0.00    -0.240 N 
ENDROOT
BRANCH   5   6
ATOM      6  C   UNL     1       9.594  20.057  29.947  1.00  0.00     0.065 A 
ATOM      7  C   UNL     1       7.302  20.330  28.345  1.00  0.00    -0.003 A 
ATOM      8  C   UNL     1       7.214  19.699  29.589  1.00  0.00     0.012 A 
ATOM      9  C   UNL     1       8.537  20.813  27.896  1.00  0.00     0.012 A 
ATOM     10  C   UNL     1       8.351  19.573  30.389  1.00  0.00     0.029 A 
ATOM     11  C   UNL     1       9.680  20.685  28.696  1.00  0.00     0.029 A 
BRANCH   7  12
ATOM     12  C   UNL     1       6.120  20.448  27.457  1.00  0.00     0.071 C 
ATOM     13  O   UNL     1       5.599  21.514  27.187  1.00  0.00    -0.545 OA
ATOM     14  O   UNL     1       5.668  19.262  26.997  1.00  0.00    -0.545 OA
ENDBRANCH   7  12
ENDBRANCH   5   6
BRANCH   2  15
ATOM     15  C   UNL     1      13.580  21.223  32.465  1.00  0.00     0.003 A 
ATOM     16  C   UNL     1      14.883  21.264  31.945  1.00  0.00     0.013 A 
ATOM     17  C   UNL     1      13.287  22.008  33.594  1.00  0.00     0.013 A 
ATOM     18  C   UNL     1      15.868  22.051  32.552  1.00  0.00     0.040 A 
ATOM     19  C   UNL     1      14.273  22.784  34.208  1.00  0.00     0.040 A 
ATOM     20  C   UNL     1      15.555  22.800  33.682  1.00  0.00     0.123 A 
ATOM     21  F   UNL     1      16.499  23.549  34.264  1.00  0.00    -0.207 F 
ENDBRANCH   2  15
BRANCH   3  22
ATOM     22  C   UNL     1      13.400  17.945  32.382  1.00  0.00     0.152 C 
BRANCH  22  23
ATOM     23  N   UNL     1      13.966  18.285  33.688  1.00  0.00    -0.381 N 
ATOM     24  H   UNL     1      14.487  19.111  33.817  1.00  0.00     0.160 HD
BRANCH  23  25
ATOM     25  C   UNL     1      13.744  17.400  34.748  1.00  0.00     0.037 A 
ATOM     26  C   UNL     1      12.790  16.385  34.598  1.00  0.00     0.046 A 
ATOM     27  C   UNL     1      14.338  17.555  36.008  1.00  0.00     0.046 A 
ATOM     28  C   UNL     1      12.514  15.500  35.645  1.00  0.00     0.044 A 
ATOM     29  C   UNL     1      14.057  16.670  37.049  1.00  0.00     0.044 A 
ATOM     30  C   UNL     1      13.153  15.630  36.872  1.00  0.00     0.041 A 
ATOM     31  Cl  UNL     1      11.371  14.235  35.411  1.00  0.00    -0.084 Cl
ATOM     32  Cl  UNL     1      14.840  16.873  38.569  1.00  0.00    -0.084 Cl
ENDBRANCH  23  25
ENDBRANCH  22  23
ENDBRANCH   3  22
TORSDOF 6
ENDMDL
MODEL 19
REMARK VINA RESULT:    -5.942      2.781      4.082
REMARK INTER + INTRA:          -9.242
REMARK INTER:                  -7.626
REMARK INTRA:                  -1.616
REMARK UNBOUND:                -1.216
REMARK SMILES O=C([O-])c1ccc(-n2cc(CNc3cc(Cl)cc(Cl)c3)c(-c3ccc(F)cc3)n2)cc1
REMARK SMILES IDX 29 1 21 2 10 3 9 4 8 5 7 6 4 7 31 8 5 9 30 10 6 11 2 12 1 13
REMARK SMILES IDX 3 14 22 15 28 16 23 17 27 18 24 19 25 20 26 21 11 22 12 23
REMARK SMILES IDX 13 25 14 26 20 27 15 28 18 29 17 30 16 31 19 32
REMARK H PARENT 12 24
ROOT
ATOM      1  N   UNL     1       8.831  19.044  30.084  1.00  0.00    -0.168 NA
ATOM      2  C   UNL     1       7.578  19.494  29.889  1.00  0.00     0.098 A 
ATOM      3  C   UNL     1       7.450  20.834  30.361  1.00  0.00     0.018 A 
ATOM      4  C   UNL     1       8.666  21.122  30.935  1.00  0.00     0.121 A 
ATOM      5  N   UNL     1       9.485  20.041  30.729  1.00  0.00    -0.240 N 
ENDROOT
BRANCH   5   6
ATOM      6  C   UNL     1      10.860  19.940  31.090  1.00  0.00     0.065 A 
ATOM      7  C   UNL     1      13.549  19.749  31.882  1.00  0.00    -0.003 A 
ATOM      8  C   UNL     1      12.733  18.614  31.899  1.00  0.00     0.012 A 
ATOM      9  C   UNL     1      13.017  20.982  31.482  1.00  0.00     0.012 A 
ATOM     10  C   UNL     1      11.400  18.707  31.495  1.00  0.00     0.029 A 
ATOM     11  C   UNL     1      11.679  21.078  31.079  1.00  0.00     0.029 A 
BRANCH   7  12
ATOM     12  C   UNL     1      14.959  19.691  32.338  1.00  0.00     0.071 C 
ATOM     13  O   UNL     1      15.624  20.684  32.562  1.00  0.00    -0.545 OA
ATOM     14  O   UNL     1      15.437  18.434  32.458  1.00  0.00    -0.545 OA
ENDBRANCH   7  12
ENDBRANCH   5   6
BRANCH   2  15
ATOM     15  C   UNL     1       6.554  18.657  29.242  1.00  0.00     0.003 A 
ATOM     16  C   UNL     1       5.997  17.559  29.915  1.00  0.00     0.013 A 
ATOM     17  C   UNL     1       6.106  18.940  27.940  1.00  0.00     0.013 A 
ATOM     18  C   UNL     1       5.037  16.754  29.292  1.00  0.00     0.040 A 
ATOM     19  C   UNL     1       5.157  18.130  27.312  1.00  0.00     0.040 A 
ATOM     20  C   UNL     1       4.629  17.044  27.994  1.00  0.00     0.123 A 
ATOM     21  F   UNL     1       3.714  16.272  27.397  1.00  0.00    -0.207 F 
ENDBRANCH   2  15
BRANCH   3  22
ATOM     22  C   UNL     1       6.297  21.770  30.254  1.00  0.00     0.152 C 
BRANCH  22  23
ATOM     23  N   UNL     1       6.299  22.597  29.046  1.00  0.00    -0.381 N 
ATOM     24  H   UNL     1       6.965  23.310  28.919  1.00  0.00     0.160 HD
BRANCH  23  25
ATOM     25  C   UNL     1       5.323  22.341  28.077  1.00  0.00     0.037 A 
ATOM     26  C   UNL     1       4.022  22.023  28.489  1.00  0.00     0.046 A 
ATOM     27  C   UNL     1       5.612  22.259  26.708  1.00  0.00     0.046 A 
ATOM     28  C   UNL     1       3.026  21.727  27.553  1.00  0.00     0.044 A 
ATOM     29  C   UNL     1       4.614  21.960  25.779  1.00  0.00     0.044 A 
ATOM     30  C   UNL     1       3.313  21.706  26.193  1.00  0.00     0.041 A 
ATOM     31  Cl  UNL     1       1.427  21.389  28.090  1.00  0.00    -0.084 Cl
ATOM     32  Cl  UNL     1       5.004  21.909  24.103  1.00  0.00    -0.084 Cl
ENDBRANCH  23  25
ENDBRANCH  22  23
ENDBRANCH   3  22
TORSDOF 6
ENDMDL
MODEL 20
REMARK VINA RESULT:    -3.461      7.345     10.397
REMARK INTER + INTRA:          -5.892
REMARK INTER:                  -3.941
REMARK INTRA:                  -1.951
REMARK UNBOUND:                -1.216
REMARK SMILES O=C([O-])c1ccc(-n2cc(CNc3cc(Cl)cc(Cl)c3)c(-c3ccc(F)cc3)n2)cc1
REMARK SMILES IDX 29 1 21 2 10 3 9 4 8 5 7 6 4 7 31 8 5 9 30 10 6 11 2 12 1 13
REMARK SMILES IDX 3 14 22 15 28 16 23 17 27 18 24 19 25 20 26 21 11 22 12 23
REMARK SMILES IDX 13 25 14 26 20 27 15 28 18 29 17 30 16 31 19 32
REMARK H PARENT 12 24
ROOT
ATOM      1  N   UNL     1      12.084  17.349  32.714  1.00  0.00    -0.168 NA
ATOM      2  C   UNL     1      13.304  17.565  33.238  1.00  0.00     0.098 A 
ATOM      3  C   UNL     1      13.623  16.553  34.193  1.00  0.00     0.018 A 
ATOM      4  C   UNL     1      12.488  15.781  34.278  1.00  0.00     0.121 A 
ATOM      5  N   UNL     1      11.591  16.264  33.360  1.00  0.00    -0.240 N 
ENDROOT
BRANCH   5   6
ATOM      6  C   UNL     1      10.312  15.714  33.055  1.00  0.00     0.065 A 
ATOM      7  C   UNL     1       7.756  14.706  32.470  1.00  0.00    -0.003 A 
ATOM      8  C   UNL     1       8.492  15.362  31.479  1.00  0.00     0.012 A 
ATOM      9  C   UNL     1       8.292  14.565  33.756  1.00  0.00     0.012 A 
ATOM     10  C   UNL     1       9.766  15.854  31.768  1.00  0.00     0.029 A 
ATOM     11  C   UNL     1       9.570  15.059  34.048  1.00  0.00     0.029 A 
BRANCH   7  12
ATOM     12  C   UNL     1       6.385  14.204  32.206  1.00  0.00     0.071 C 
ATOM     13  O   UNL     1       6.012  13.846  31.105  1.00  0.00    -0.545 OA
ATOM     14  O   UNL     1       5.590  14.204  33.297  1.00  0.00    -0.545 OA
ENDBRANCH   7  12
ENDBRANCH   5   6
BRANCH   2  15
ATOM     15  C   UNL     1      14.137  18.698  32.805  1.00  0.00     0.003 A 
ATOM     16  C   UNL     1      15.398  18.482  32.229  1.00  0.00     0.013 A 
ATOM     17  C   UNL     1      13.687  20.023  32.952  1.00  0.00     0.013 A 
ATOM     18  C   UNL     1      16.195  19.563  31.834  1.00  0.00     0.040 A 
ATOM     19  C   UNL     1      14.487  21.102  32.569  1.00  0.00     0.040 A 
ATOM     20  C   UNL     1      15.734  20.863  32.012  1.00  0.00     0.123 A 
ATOM     21  F   UNL     1      16.499  21.896  31.638  1.00  0.00    -0.207 F 
ENDBRANCH   2  15
BRANCH   3  22
ATOM     22  C   UNL     1      14.892  16.316  34.934  1.00  0.00     0.152 C 
BRANCH  22  23
ATOM     23  N   UNL     1      14.858  16.722  36.340  1.00  0.00    -0.381 N 
ATOM     24  H   UNL     1      14.887  16.054  37.063  1.00  0.00     0.160 HD
BRANCH  23  25
ATOM     25  C   UNL     1      14.781  18.089  36.624  1.00  0.00     0.037 A 
ATOM     26  C   UNL     1      13.765  18.552  37.472  1.00  0.00     0.046 A 
ATOM     27  C   UNL     1      15.593  19.044  35.999  1.00  0.00     0.046 A 
ATOM     28  C   UNL     1      13.633  19.914  37.754  1.00  0.00     0.044 A 
ATOM     29  C   UNL     1      15.454  20.403  36.283  1.00  0.00     0.044 A 
ATOM     30  C   UNL     1      14.483  20.847  37.171  1.00  0.00     0.041 A 
ATOM     31  Cl  UNL     1      12.405  20.444  38.837  1.00  0.00    -0.084 Cl
ATOM     32  Cl  UNL     1      16.501  21.539  35.522  1.00  0.00    -0.084 Cl
ENDBRANCH  23  25
ENDBRANCH  22  23
ENDBRANCH   3  22
TORSDOF 6
ENDMDL
