REMARK 999 siam chowdhury
REMARK 999 Computational and Medicinal Chemistry
REMARK 999 [Dr. Alam's Research Team] www.alamresearch.org
REMARK 999 Arkansas State University
REMARK 999 20sa23 ligand PDBQT (pH 7.4, MMFF94, Meeko)
REMARK 999 Created: 2026-09-25 02:23:56
REMARK SMILES O=C([O-])c1ccc(-n2cc(CNc3cc(Cl)cc(Cl)c3)c(-c3ccc(F)cc3)n2)cc1
REMARK SMILES IDX 29 1 21 2 10 3 9 4 8 5 7 6 4 7 31 8 5 9 30 10 6 11 2 12 1 13
REMARK SMILES IDX 3 14 22 15 28 16 23 17 27 18 24 19 25 20 26 21 11 22 12 23
REMARK SMILES IDX 13 25 14 26 20 27 15 28 18 29 17 30 16 31 19 32
REMARK H PARENT 12 24
ROOT
ATOM      1  N   UNL     1       5.713   4.625   3.104  1.00  0.00    -0.168 NA
ATOM      2  C   UNL     1       6.177   5.888   3.126  1.00  0.00     0.098 A 
ATOM      3  C   UNL     1       5.748   6.597   1.965  1.00  0.00     0.018 A 
ATOM      4  C   UNL     1       5.086   5.661   1.206  1.00  0.00     0.121 A 
ATOM      5  N   UNL     1       5.055   4.494   1.926  1.00  0.00    -0.240 N 
ENDROOT
BRANCH   5   6
ATOM      6  C   UNL     1       4.400   3.285   1.552  1.00  0.00     0.065 A 
ATOM      7  C   UNL     1       3.035   0.934   0.842  1.00  0.00    -0.003 A 
ATOM      8  C   UNL     1       3.076   2.013  -0.045  1.00  0.00     0.012 A 
ATOM      9  C   UNL     1       3.665   1.034   2.089  1.00  0.00     0.012 A 
ATOM     10  C   UNL     1       3.763   3.177   0.304  1.00  0.00     0.029 A 
ATOM     11  C   UNL     1       4.353   2.202   2.442  1.00  0.00     0.029 A 
BRANCH   7  12
ATOM     12  C   UNL     1       2.284  -0.303   0.516  1.00  0.00     0.071 C 
ATOM     13  O   UNL     1       1.700  -0.963   1.354  1.00  0.00    -0.545 OA
ATOM     14  O   UNL     1       2.331  -0.635  -0.792  1.00  0.00    -0.545 OA
ENDBRANCH   7  12
ENDBRANCH   5   6
BRANCH   2  15
ATOM     15  C   UNL     1       6.985   6.389   4.249  1.00  0.00     0.003 A 
ATOM     16  C   UNL     1       6.756   5.933   5.556  1.00  0.00     0.013 A 
ATOM     17  C   UNL     1       8.008   7.331   4.040  1.00  0.00     0.013 A 
ATOM     18  C   UNL     1       7.514   6.424   6.625  1.00  0.00     0.040 A 
ATOM     19  C   UNL     1       8.757   7.831   5.108  1.00  0.00     0.040 A 
ATOM     20  C   UNL     1       8.504   7.373   6.392  1.00  0.00     0.123 A 
ATOM     21  F   UNL     1       9.226   7.845   7.415  1.00  0.00    -0.207 F 
ENDBRANCH   2  15
BRANCH   3  22
ATOM     22  C   UNL     1       5.918   8.035   1.616  1.00  0.00     0.152 C 
BRANCH  22  23
ATOM     23  N   UNL     1       7.119   8.330   0.833  1.00  0.00    -0.381 N 
ATOM     24  H   UNL     1       7.756   7.619   0.592  1.00  0.00     0.160 HD
BRANCH  23  25
ATOM     25  C   UNL     1       7.333   9.655   0.438  1.00  0.00     0.037 A 
ATOM     26  C   UNL     1       8.081   9.907  -0.720  1.00  0.00     0.046 A 
ATOM     27  C   UNL     1       6.945  10.754   1.216  1.00  0.00     0.046 A 
ATOM     28  C   UNL     1       8.346  11.217  -1.130  1.00  0.00     0.044 A 
ATOM     29  C   UNL     1       7.215  12.059   0.802  1.00  0.00     0.044 A 
ATOM     30  C   UNL     1       7.905  12.300  -0.379  1.00  0.00     0.041 A 
ATOM     31  Cl  UNL     1       9.226  11.492  -2.583  1.00  0.00    -0.084 Cl
ATOM     32  Cl  UNL     1       6.685  13.381   1.769  1.00  0.00    -0.084 Cl
ENDBRANCH  23  25
ENDBRANCH  22  23
ENDBRANCH   3  22
TORSDOF 6
