HETATM    1  N   FMN A 401       7.428  11.161  32.296  0.00  0.00    -0.172 NA
HETATM    2  C   FMN A 401       8.319  11.172  31.253  0.00  0.00    +0.373 A 
HETATM    3  O   FMN A 401       7.904  11.107  30.144  0.00  0.00    -0.242 OA
HETATM    4  N   FMN A 401       9.669  11.254  31.493  0.00  0.00    -0.150 N 
HETATM    5  C   FMN A 401      10.102  11.316  32.760  0.00  0.00    +0.304 A 
HETATM    6  O   FMN A 401      11.284  11.365  32.968  0.00  0.00    -0.263 OA
HETATM    7  C   FMN A 401       9.201  11.302  33.850  0.00  0.00    +0.173 A 
HETATM    8  N   FMN A 401       9.643  11.367  35.114  0.00  0.00    -0.236 NA
HETATM    9  C   FMN A 401       8.751  11.349  36.153  0.00  0.00    +0.097 A 
HETATM   10  C   FMN A 401       9.201  11.397  37.486  0.00  0.00    +0.016 A 
HETATM   11  C   FMN A 401       8.308  11.363  38.547  0.00  0.00    -0.024 A 
HETATM   12  C   FMN A 401       8.806  11.419  39.995  0.00  0.00    +0.031 C 
HETATM   13  C   FMN A 401       6.923  11.282  38.310  0.00  0.00    -0.024 A 
HETATM   14  C   FMN A 401       5.944  11.246  39.477  0.00  0.00    +0.031 C 
HETATM   15  C   FMN A 401       6.459  11.239  37.000  0.00  0.00    +0.014 A 
HETATM   16  C   FMN A 401       7.358  11.256  35.936  0.00  0.00    +0.079 A 
HETATM   17  N   FMN A 401       6.907  11.215  34.632  0.00  0.00    -0.307 N 
HETATM   18  C   FMN A 401       7.855  11.218  33.554  0.00  0.00    +0.171 A 
HETATM   19  C   FMN A 401       5.465  11.093  34.337  0.00  0.00    +0.143 C 
HETATM   20  C   FMN A 401       5.113   9.596  34.472  0.00  0.00    +0.207 C 
HETATM   21  O   FMN A 401       5.704   8.811  33.462  0.00  0.00    -0.218 OA
HETATM   22  C   FMN A 401       3.610   9.342  34.435  0.00  0.00    +0.217 C 
HETATM   23  O   FMN A 401       3.083   9.661  33.167  0.00  0.00    -0.218 OA
HETATM   24  C   FMN A 401       2.847  10.066  35.552  0.00  0.00    +0.215 C 
HETATM   25  O   FMN A 401       3.483   9.846  36.789  0.00  0.00    -0.218 OA
HETATM   26  C   FMN A 401       1.431   9.528  35.583  0.00  0.00    +0.189 C 
HETATM   27  O   FMN A 401       0.658  10.204  36.538  0.00  0.00    -0.267 OA
HETATM   28  P   FMN A 401       0.468   9.564  38.037  0.00  0.00    +0.533 P 
HETATM   29  O   FMN A 401       0.251   8.068  37.932  0.00  0.00    -0.222 OA
HETATM   30  O   FMN A 401       1.729   9.879  38.823  0.00  0.00    -0.115 OA
HETATM   31  O   FMN A 401      -0.729  10.251  38.636  0.00  0.00    -0.115 OA
HETATM   32  H   FMN A 401      10.309  11.267  30.745  0.00  0.00    +0.000 HD
HETATM   33  H   FMN A 401       5.347   9.072  32.599  0.00  0.00    +0.000 HD
HETATM   34  H   FMN A 401       3.204  10.608  32.996  0.00  0.00    +0.000 HD
HETATM   35  H   FMN A 401       3.508   8.894  36.975  0.00  0.00    +0.000 HD
HETATM    1  N   FMN B 401     -21.165  26.784  40.652  0.00  0.00    -0.172 NA
HETATM    2  C   FMN B 401     -21.807  27.242  41.778  0.00  0.00    +0.373 A 
HETATM    3  O   FMN B 401     -21.876  26.509  42.719  0.00  0.00    -0.242 OA
HETATM    4  N   FMN B 401     -22.360  28.520  41.816  0.00  0.00    -0.150 N 
HETATM    5  C   FMN B 401     -22.273  29.309  40.734  0.00  0.00    +0.304 A 
HETATM    6  O   FMN B 401     -22.778  30.404  40.773  0.00  0.00    -0.263 OA
HETATM    7  C   FMN B 401     -21.618  28.857  39.560  0.00  0.00    +0.173 A 
HETATM    8  N   FMN B 401     -21.512  29.634  38.464  0.00  0.00    -0.236 NA
HETATM    9  C   FMN B 401     -20.889  29.139  37.356  0.00  0.00    +0.097 A 
HETATM   10  C   FMN B 401     -20.807  29.927  36.192  0.00  0.00    +0.016 A 
HETATM   11  C   FMN B 401     -20.206  29.464  35.051  0.00  0.00    -0.024 A 
HETATM   12  C   FMN B 401     -20.177  30.379  33.832  0.00  0.00    +0.031 C 
HETATM   13  C   FMN B 401     -19.643  28.165  35.005  0.00  0.00    -0.024 A 
HETATM   14  C   FMN B 401     -18.978  27.632  33.734  0.00  0.00    +0.031 C 
HETATM   15  C   FMN B 401     -19.720  27.367  36.142  0.00  0.00    +0.014 A 
HETATM   16  C   FMN B 401     -20.347  27.846  37.295  0.00  0.00    +0.079 A 
HETATM   17  N   FMN B 401     -20.423  27.062  38.424  0.00  0.00    -0.307 N 
HETATM   18  C   FMN B 401     -21.083  27.572  39.585  0.00  0.00    +0.171 A 
HETATM   19  C   FMN B 401     -19.900  25.668  38.433  0.00  0.00    +0.143 C 
HETATM   20  C   FMN B 401     -20.968  24.776  37.755  0.00  0.00    +0.207 C 
HETATM   21  O   FMN B 401     -22.138  24.660  38.528  0.00  0.00    -0.218 OA
HETATM   22  C   FMN B 401     -20.476  23.363  37.429  0.00  0.00    +0.217 C 
HETATM   23  O   FMN B 401     -20.140  22.667  38.605  0.00  0.00    -0.218 OA
HETATM   24  C   FMN B 401     -19.289  23.345  36.451  0.00  0.00    +0.215 C 
HETATM   25  O   FMN B 401     -19.598  24.186  35.375  0.00  0.00    -0.218 OA
HETATM   26  C   FMN B 401     -19.046  21.913  35.989  0.00  0.00    +0.189 C 
HETATM   27  O   FMN B 401     -17.884  21.823  35.184  0.00  0.00    -0.267 OA
HETATM   28  P   FMN B 401     -18.085  21.909  33.568  0.00  0.00    +0.533 P 
HETATM   29  O   FMN B 401     -18.258  23.372  33.183  0.00  0.00    -0.222 OA
HETATM   30  O   FMN B 401     -16.813  21.333  32.976  0.00  0.00    -0.115 OA
HETATM   31  O   FMN B 401     -19.297  21.081  33.146  0.00  0.00    -0.115 OA
HETATM   32  H   FMN B 401     -22.811  28.842  42.630  0.00  0.00    +0.000 HD
HETATM   33  H   FMN B 401     -21.934  24.198  39.356  0.00  0.00    +0.000 HD
HETATM   34  H   FMN B 401     -19.401  23.115  39.046  0.00  0.00    +0.000 HD
HETATM   35  H   FMN B 401     -20.409  23.875  34.944  0.00  0.00    +0.000 HD
