REMARK 999 siam chowdhury
REMARK 999 Computational and Medicinal Chemistry
REMARK 999 [Dr. Alam's Research Team] www.alamresearch.org
REMARK 999 Arkansas State University
REMARK 999 7L00 FMN cofactor
REMARK 999 Created: 2026-09-25 02:01:31
REMARK  Name = FMN
REMARK                            x       y       z     vdW  Elec       q    Type
REMARK                         _______ _______ _______ _____ _____    ______ ____
ATOM      1  N   UNL     1       7.428  11.161  32.296  0.00  0.00    -0.172 NA
ATOM      2  C   UNL     1       8.319  11.172  31.253  0.00  0.00    +0.373 A 
ATOM      3  O   UNL     1       7.904  11.107  30.144  0.00  0.00    -0.242 OA
ATOM      4  N   UNL     1       9.669  11.254  31.493  0.00  0.00    -0.150 N 
ATOM      5  C   UNL     1      10.102  11.316  32.760  0.00  0.00    +0.304 A 
ATOM      6  O   UNL     1      11.284  11.365  32.968  0.00  0.00    -0.263 OA
ATOM      7  C   UNL     1       9.201  11.302  33.850  0.00  0.00    +0.173 A 
ATOM      8  N   UNL     1       9.643  11.367  35.114  0.00  0.00    -0.236 NA
ATOM      9  C   UNL     1       8.751  11.349  36.153  0.00  0.00    +0.097 A 
ATOM     10  C   UNL     1       9.201  11.397  37.486  0.00  0.00    +0.016 A 
ATOM     11  C   UNL     1       8.308  11.363  38.547  0.00  0.00    -0.024 A 
ATOM     12  C   UNL     1       8.806  11.419  39.995  0.00  0.00    +0.031 C 
ATOM     13  C   UNL     1       6.923  11.282  38.310  0.00  0.00    -0.024 A 
ATOM     14  C   UNL     1       5.944  11.246  39.477  0.00  0.00    +0.031 C 
ATOM     15  C   UNL     1       6.459  11.239  37.000  0.00  0.00    +0.014 A 
ATOM     16  C   UNL     1       7.358  11.256  35.936  0.00  0.00    +0.079 A 
ATOM     17  N   UNL     1       6.907  11.215  34.632  0.00  0.00    -0.307 N 
ATOM     18  C   UNL     1       7.855  11.218  33.554  0.00  0.00    +0.171 A 
ATOM     19  C   UNL     1       5.465  11.093  34.337  0.00  0.00    +0.143 C 
ATOM     20  C   UNL     1       5.113   9.596  34.472  0.00  0.00    +0.207 C 
ATOM     21  O   UNL     1       5.704   8.811  33.462  0.00  0.00    -0.218 OA
ATOM     22  C   UNL     1       3.610   9.342  34.435  0.00  0.00    +0.217 C 
ATOM     23  O   UNL     1       3.083   9.661  33.167  0.00  0.00    -0.218 OA
ATOM     24  C   UNL     1       2.847  10.066  35.552  0.00  0.00    +0.215 C 
ATOM     25  O   UNL     1       3.483   9.846  36.789  0.00  0.00    -0.218 OA
ATOM     26  C   UNL     1       1.431   9.528  35.583  0.00  0.00    +0.189 C 
ATOM     27  O   UNL     1       0.658  10.204  36.538  0.00  0.00    -0.267 OA
ATOM     28  P   UNL     1       0.468   9.564  38.037  0.00  0.00    +0.533 P 
ATOM     29  O   UNL     1       0.251   8.068  37.932  0.00  0.00    -0.222 OA
ATOM     30  O   UNL     1       1.729   9.879  38.823  0.00  0.00    -0.115 OA
ATOM     31  O   UNL     1      -0.729  10.251  38.636  0.00  0.00    -0.115 OA
ATOM     32  H   UNL     1      10.309  11.267  30.745  0.00  0.00    +0.000 HD
ATOM     33  H   UNL     1       5.347   9.072  32.599  0.00  0.00    +0.000 HD
ATOM     34  H   UNL     1       3.204  10.608  32.996  0.00  0.00    +0.000 HD
ATOM     35  H   UNL     1       3.508   8.894  36.975  0.00  0.00    +0.000 HD
TER 
