REMARK 999 siam chowdhury
REMARK 999 Computational and Medicinal Chemistry
REMARK 999 [Dr. Alam's Research Team] www.alamresearch.org
REMARK 999 Arkansas State University
REMARK 999 7L00 FMN cofactor
REMARK 999 Created: 2026-09-25 02:01:31
REMARK  Name = FMN
REMARK                            x       y       z     vdW  Elec       q    Type
REMARK                         _______ _______ _______ _____ _____    ______ ____
ATOM      1  N   UNL     1     -21.165  26.784  40.652  0.00  0.00    -0.172 NA
ATOM      2  C   UNL     1     -21.807  27.242  41.778  0.00  0.00    +0.373 A 
ATOM      3  O   UNL     1     -21.876  26.509  42.719  0.00  0.00    -0.242 OA
ATOM      4  N   UNL     1     -22.360  28.520  41.816  0.00  0.00    -0.150 N 
ATOM      5  C   UNL     1     -22.273  29.309  40.734  0.00  0.00    +0.304 A 
ATOM      6  O   UNL     1     -22.778  30.404  40.773  0.00  0.00    -0.263 OA
ATOM      7  C   UNL     1     -21.618  28.857  39.560  0.00  0.00    +0.173 A 
ATOM      8  N   UNL     1     -21.512  29.634  38.464  0.00  0.00    -0.236 NA
ATOM      9  C   UNL     1     -20.889  29.139  37.356  0.00  0.00    +0.097 A 
ATOM     10  C   UNL     1     -20.807  29.927  36.192  0.00  0.00    +0.016 A 
ATOM     11  C   UNL     1     -20.206  29.464  35.051  0.00  0.00    -0.024 A 
ATOM     12  C   UNL     1     -20.177  30.379  33.832  0.00  0.00    +0.031 C 
ATOM     13  C   UNL     1     -19.643  28.165  35.005  0.00  0.00    -0.024 A 
ATOM     14  C   UNL     1     -18.978  27.632  33.734  0.00  0.00    +0.031 C 
ATOM     15  C   UNL     1     -19.720  27.367  36.142  0.00  0.00    +0.014 A 
ATOM     16  C   UNL     1     -20.347  27.846  37.295  0.00  0.00    +0.079 A 
ATOM     17  N   UNL     1     -20.423  27.062  38.424  0.00  0.00    -0.307 N 
ATOM     18  C   UNL     1     -21.083  27.572  39.585  0.00  0.00    +0.171 A 
ATOM     19  C   UNL     1     -19.900  25.668  38.433  0.00  0.00    +0.143 C 
ATOM     20  C   UNL     1     -20.968  24.776  37.755  0.00  0.00    +0.207 C 
ATOM     21  O   UNL     1     -22.138  24.660  38.528  0.00  0.00    -0.218 OA
ATOM     22  C   UNL     1     -20.476  23.363  37.429  0.00  0.00    +0.217 C 
ATOM     23  O   UNL     1     -20.140  22.667  38.605  0.00  0.00    -0.218 OA
ATOM     24  C   UNL     1     -19.289  23.345  36.451  0.00  0.00    +0.215 C 
ATOM     25  O   UNL     1     -19.598  24.186  35.375  0.00  0.00    -0.218 OA
ATOM     26  C   UNL     1     -19.046  21.913  35.989  0.00  0.00    +0.189 C 
ATOM     27  O   UNL     1     -17.884  21.823  35.184  0.00  0.00    -0.267 OA
ATOM     28  P   UNL     1     -18.085  21.909  33.568  0.00  0.00    +0.533 P 
ATOM     29  O   UNL     1     -18.258  23.372  33.183  0.00  0.00    -0.222 OA
ATOM     30  O   UNL     1     -16.813  21.333  32.976  0.00  0.00    -0.115 OA
ATOM     31  O   UNL     1     -19.297  21.081  33.146  0.00  0.00    -0.115 OA
ATOM     32  H   UNL     1     -22.811  28.842  42.630  0.00  0.00    +0.000 HD
ATOM     33  H   UNL     1     -21.934  24.198  39.356  0.00  0.00    +0.000 HD
ATOM     34  H   UNL     1     -19.401  23.115  39.046  0.00  0.00    +0.000 HD
ATOM     35  H   UNL     1     -20.409  23.875  34.944  0.00  0.00    +0.000 HD
TER 
