REMARK 999 siam chowdhury
REMARK 999 Computational and Medicinal Chemistry
REMARK 999 [Dr. Alam's Research Team] www.alamresearch.org
REMARK 999 Arkansas State University
REMARK 999 XCJ ligand prepared for redocking
REMARK 999 Created: 2026-09-25 02:01:32
REMARK SMILES CS(=O)(=O)c1ccc2nc(NC(=O)Cc3csc(-n4cccc4)n3)sc2c1
REMARK SMILES IDX 12 1 11 2 13 3 10 5 5 6 27 7 6 8 26 9 7 10 25 11 8 12 9 13
REMARK SMILES IDX 2 14 3 15 4 16 1 17 14 18 15 19 24 20 16 21 18 22 17 23
REMARK SMILES IDX 19 24 20 25 23 26 21 27 22 28
REMARK H PARENT 11 4
ROOT
ATOM      1  C   UNL     1       6.702   4.876   5.823  1.00  0.00     0.232 C 
ATOM      2  N   UNL     1       5.670   5.183   4.963  1.00  0.00    -0.302 N 
ATOM      3  O   UNL     1       7.286   3.795   5.900  1.00  0.00    -0.274 OA
ATOM      4  H   UNL     1       5.294   6.089   5.034  1.00  0.00     0.172 HD
ENDROOT
BRANCH   2   5
ATOM      5  C   UNL     1       5.112   4.360   4.018  1.00  0.00     0.190 A 
ATOM      6  C   UNL     1       3.209   1.490   0.809  1.00  0.00     0.068 A 
ATOM      7  C   UNL     1       4.037   1.353   1.927  1.00  0.00     0.041 A 
ATOM      8  C   UNL     1       2.751   2.739   0.387  1.00  0.00     0.022 A 
ATOM      9  C   UNL     1       4.371   2.516   2.634  1.00  0.00     0.058 A 
ATOM     10  C   UNL     1       3.088   3.887   1.118  1.00  0.00     0.031 A 
ATOM     11  S   UNL     1       5.369   2.678   4.020  1.00  0.00    -0.097 S 
ATOM     12  C   UNL     1       3.904   3.780   2.264  1.00  0.00     0.084 A 
ATOM     13  N   UNL     1       4.307   4.818   3.090  1.00  0.00    -0.220 NA
BRANCH   6  14
ATOM     14  S   UNL     1       2.783   0.032  -0.116  1.00  0.00     0.175 S 
ATOM     15  O   UNL     1       3.821  -0.953   0.121  1.00  0.00    -0.224 OA
ATOM     16  O   UNL     1       2.450   0.452  -1.464  1.00  0.00    -0.224 OA
ATOM     17  C   UNL     1       1.297  -0.529   0.673  1.00  0.00     0.163 C 
ENDBRANCH   6  14
ENDBRANCH   2   5
BRANCH   1  18
ATOM     18  C   UNL     1       7.089   5.987   6.790  1.00  0.00     0.157 C 
BRANCH  18  19
ATOM     19  C   UNL     1       6.977   7.361   6.214  1.00  0.00     0.063 A 
ATOM     20  N   UNL     1       5.720   7.831   5.847  1.00  0.00    -0.224 NA
ATOM     21  C   UNL     1       8.014   8.248   5.986  1.00  0.00     0.093 A 
ATOM     22  C   UNL     1       5.840   9.036   5.327  1.00  0.00     0.193 A 
ATOM     23  S   UNL     1       7.416   9.678   5.255  1.00  0.00    -0.105 S 
BRANCH  22  24
ATOM     24  N   UNL     1       4.750   9.781   4.853  1.00  0.00    -0.300 N 
ATOM     25  C   UNL     1       3.419   9.412   4.988  1.00  0.00     0.093 A 
ATOM     26  C   UNL     1       4.756  10.988   4.170  1.00  0.00     0.093 A 
ATOM     27  C   UNL     1       2.613  10.374   4.423  1.00  0.00     0.020 A 
ATOM     28  C   UNL     1       3.461  11.368   3.894  1.00  0.00     0.020 A 
ENDBRANCH  22  24
ENDBRANCH  18  19
ENDBRANCH   1  18
TORSDOF 5
