REMARK 999 siam chowdhury
REMARK 999 Computational and Medicinal Chemistry
REMARK 999 [Dr. Alam's Research Team] www.alamresearch.org
REMARK 999 Arkansas State University
REMARK 999 20sa23 Vina docking output (7L00 FabK)
REMARK 999 Created: 2026-09-25 02:12:40
MODEL 1
REMARK VINA RESULT:    -9.148      0.000      0.000
REMARK INTER + INTRA:         -13.904
REMARK INTER:                 -12.357
REMARK INTRA:                  -1.547
REMARK UNBOUND:                -1.547
REMARK SMILES O=C([O-])c1ccc(-n2cc(CNc3cc(Cl)cc(Cl)c3)c(-c3ccc(F)cc3)n2)cc1
REMARK SMILES IDX 29 1 21 2 10 3 9 4 8 5 7 6 4 7 31 8 5 9 30 10 6 11 2 12 1 13
REMARK SMILES IDX 3 14 22 15 28 16 23 17 27 18 24 19 25 20 26 21 11 22 12 23
REMARK SMILES IDX 13 25 14 26 20 27 15 28 18 29 17 30 16 31 19 32
REMARK H PARENT 12 24
ROOT
ATOM      1  N   UNL     1      13.865  19.646  38.876  1.00  0.00    -0.168 NA
ATOM      2  C   UNL     1      13.989  20.905  39.337  1.00  0.00     0.098 A 
ATOM      3  C   UNL     1      15.165  21.516  38.810  1.00  0.00     0.018 A 
ATOM      4  C   UNL     1      15.797  20.514  38.108  1.00  0.00     0.121 A 
ATOM      5  N   UNL     1      14.972  19.417  38.125  1.00  0.00    -0.240 N 
ENDROOT
BRANCH   5   6
ATOM      6  C   UNL     1      15.161  18.197  37.414  1.00  0.00     0.065 A 
ATOM      7  C   UNL     1      15.390  15.739  36.063  1.00  0.00    -0.003 A 
ATOM      8  C   UNL     1      14.906  16.868  35.395  1.00  0.00     0.012 A 
ATOM      9  C   UNL     1      15.769  15.841  37.407  1.00  0.00     0.012 A 
ATOM     10  C   UNL     1      14.793  18.091  36.064  1.00  0.00     0.029 A 
ATOM     11  C   UNL     1      15.669  17.069  38.077  1.00  0.00     0.029 A 
BRANCH   7  12
ATOM     12  C   UNL     1      15.414  14.458  35.311  1.00  0.00     0.071 C 
ATOM     13  O   UNL     1      16.186  13.554  35.573  1.00  0.00    -0.545 OA
ATOM     14  O   UNL     1      14.477  14.368  34.342  1.00  0.00    -0.545 OA
ENDBRANCH   7  12
ENDBRANCH   5   6
BRANCH   2  15
ATOM     15  C   UNL     1      12.978  21.496  40.229  1.00  0.00     0.003 A 
ATOM     16  C   UNL     1      13.076  21.349  41.622  1.00  0.00     0.013 A 
ATOM     17  C   UNL     1      11.895  22.228  39.711  1.00  0.00     0.013 A 
ATOM     18  C   UNL     1      12.105  21.902  42.467  1.00  0.00     0.040 A 
ATOM     19  C   UNL     1      10.920  22.768  40.553  1.00  0.00     0.040 A 
ATOM     20  C   UNL     1      11.035  22.600  41.925  1.00  0.00     0.123 A 
ATOM     21  F   UNL     1      10.105  23.124  42.733  1.00  0.00    -0.207 F 
ENDBRANCH   2  15
BRANCH   3  22
ATOM     22  C   UNL     1      15.625  22.930  38.923  1.00  0.00     0.152 C 
BRANCH  22  23
ATOM     23  N   UNL     1      15.764  23.631  37.648  1.00  0.00    -0.381 N 
ATOM     24  H   UNL     1      16.649  23.775  37.241  1.00  0.00     0.160 HD
BRANCH  23  25
ATOM     25  C   UNL     1      14.601  24.095  37.020  1.00  0.00     0.037 A 
ATOM     26  C   UNL     1      14.498  23.998  35.626  1.00  0.00     0.046 A 
ATOM     27  C   UNL     1      13.584  24.777  37.701  1.00  0.00     0.046 A 
ATOM     28  C   UNL     1      13.373  24.485  34.954  1.00  0.00     0.044 A 
ATOM     29  C   UNL     1      12.464  25.262  37.024  1.00  0.00     0.044 A 
ATOM     30  C   UNL     1      12.345  25.109  35.648  1.00  0.00     0.041 A 
ATOM     31  Cl  UNL     1      13.260  24.308  33.245  1.00  0.00    -0.084 Cl
ATOM     32  Cl  UNL     1      11.222  26.064  37.907  1.00  0.00    -0.084 Cl
ENDBRANCH  23  25
ENDBRANCH  22  23
ENDBRANCH   3  22
TORSDOF 6
ENDMDL
MODEL 2
REMARK VINA RESULT:    -9.078      0.259      1.622
REMARK INTER + INTRA:         -13.808
REMARK INTER:                 -12.307
REMARK INTRA:                  -1.502
REMARK UNBOUND:                -1.547
REMARK SMILES O=C([O-])c1ccc(-n2cc(CNc3cc(Cl)cc(Cl)c3)c(-c3ccc(F)cc3)n2)cc1
REMARK SMILES IDX 29 1 21 2 10 3 9 4 8 5 7 6 4 7 31 8 5 9 30 10 6 11 2 12 1 13
REMARK SMILES IDX 3 14 22 15 28 16 23 17 27 18 24 19 25 20 26 21 11 22 12 23
REMARK SMILES IDX 13 25 14 26 20 27 15 28 18 29 17 30 16 31 19 32
REMARK H PARENT 12 24
ROOT
ATOM      1  N   UNL     1      13.834  19.615  38.782  1.00  0.00    -0.168 NA
ATOM      2  C   UNL     1      13.957  20.875  39.240  1.00  0.00     0.098 A 
ATOM      3  C   UNL     1      15.114  21.498  38.685  1.00  0.00     0.018 A 
ATOM      4  C   UNL     1      15.738  20.501  37.967  1.00  0.00     0.121 A 
ATOM      5  N   UNL     1      14.924  19.397  38.003  1.00  0.00    -0.240 N 
ENDROOT
BRANCH   5   6
ATOM      6  C   UNL     1      15.107  18.179  37.287  1.00  0.00     0.065 A 
ATOM      7  C   UNL     1      15.360  15.704  35.971  1.00  0.00    -0.003 A 
ATOM      8  C   UNL     1      14.486  16.679  35.479  1.00  0.00     0.012 A 
ATOM      9  C   UNL     1      16.116  15.972  37.119  1.00  0.00     0.012 A 
ATOM     10  C   UNL     1      14.360  17.910  36.130  1.00  0.00     0.029 A 
ATOM     11  C   UNL     1      16.001  17.210  37.767  1.00  0.00     0.029 A 
BRANCH   7  12
ATOM     12  C   UNL     1      15.388  14.394  35.270  1.00  0.00     0.071 C 
ATOM     13  O   UNL     1      16.139  13.491  35.591  1.00  0.00    -0.545 OA
ATOM     14  O   UNL     1      14.480  14.279  34.278  1.00  0.00    -0.545 OA
ENDBRANCH   7  12
ENDBRANCH   5   6
BRANCH   2  15
ATOM     15  C   UNL     1      12.962  21.456  40.157  1.00  0.00     0.003 A 
ATOM     16  C   UNL     1      13.122  21.352  41.548  1.00  0.00     0.013 A 
ATOM     17  C   UNL     1      11.835  22.137  39.664  1.00  0.00     0.013 A 
ATOM     18  C   UNL     1      12.167  21.894  42.418  1.00  0.00     0.040 A 
ATOM     19  C   UNL     1      10.876  22.666  40.531  1.00  0.00     0.040 A 
ATOM     20  C   UNL     1      11.052  22.541  41.902  1.00  0.00     0.123 A 
ATOM     21  F   UNL     1      10.138  23.056  42.733  1.00  0.00    -0.207 F 
ENDBRANCH   2  15
BRANCH   3  22
ATOM     22  C   UNL     1      15.563  22.916  38.786  1.00  0.00     0.152 C 
BRANCH  22  23
ATOM     23  N   UNL     1      15.820  23.569  37.504  1.00  0.00    -0.381 N 
ATOM     24  H   UNL     1      16.728  23.603  37.125  1.00  0.00     0.160 HD
BRANCH  23  25
ATOM     25  C   UNL     1      14.737  24.148  36.829  1.00  0.00     0.037 A 
ATOM     26  C   UNL     1      13.623  24.565  37.569  1.00  0.00     0.046 A 
ATOM     27  C   UNL     1      14.652  24.211  35.433  1.00  0.00     0.046 A 
ATOM     28  C   UNL     1      12.504  25.110  36.933  1.00  0.00     0.044 A 
ATOM     29  C   UNL     1      13.531  24.755  34.804  1.00  0.00     0.044 A 
ATOM     30  C   UNL     1      12.454  25.219  35.549  1.00  0.00     0.041 A 
ATOM     31  Cl  UNL     1      11.170  25.654  37.876  1.00  0.00    -0.084 Cl
ATOM     32  Cl  UNL     1      13.484  24.844  33.085  1.00  0.00    -0.084 Cl
ENDBRANCH  23  25
ENDBRANCH  22  23
ENDBRANCH   3  22
TORSDOF 6
ENDMDL
MODEL 3
REMARK VINA RESULT:    -8.346      5.917      8.620
REMARK INTER + INTRA:         -12.820
REMARK INTER:                 -11.212
REMARK INTRA:                  -1.609
REMARK UNBOUND:                -1.547
REMARK SMILES O=C([O-])c1ccc(-n2cc(CNc3cc(Cl)cc(Cl)c3)c(-c3ccc(F)cc3)n2)cc1
REMARK SMILES IDX 29 1 21 2 10 3 9 4 8 5 7 6 4 7 31 8 5 9 30 10 6 11 2 12 1 13
REMARK SMILES IDX 3 14 22 15 28 16 23 17 27 18 24 19 25 20 26 21 11 22 12 23
REMARK SMILES IDX 13 25 14 26 20 27 15 28 18 29 17 30 16 31 19 32
REMARK H PARENT 12 24
ROOT
ATOM      1  N   UNL     1      12.352  16.723  33.562  1.00  0.00    -0.168 NA
ATOM      2  C   UNL     1      13.560  16.697  34.157  1.00  0.00     0.098 A 
ATOM      3  C   UNL     1      13.772  15.440  34.799  1.00  0.00     0.018 A 
ATOM      4  C   UNL     1      12.579  14.767  34.657  1.00  0.00     0.121 A 
ATOM      5  N   UNL     1      11.762  15.540  33.870  1.00  0.00    -0.240 N 
ENDROOT
BRANCH   5   6
ATOM      6  C   UNL     1      10.484  15.179  33.354  1.00  0.00     0.065 A 
ATOM      7  C   UNL     1       7.914  14.618  32.355  1.00  0.00    -0.003 A 
ATOM      8  C   UNL     1       8.964  14.909  31.478  1.00  0.00     0.012 A 
ATOM      9  C   UNL     1       8.153  14.598  33.735  1.00  0.00     0.012 A 
ATOM     10  C   UNL     1      10.242  15.187  31.972  1.00  0.00     0.029 A 
ATOM     11  C   UNL     1       9.436  14.863  34.233  1.00  0.00     0.029 A 
BRANCH   7  12
ATOM     12  C   UNL     1       6.567  14.406  31.764  1.00  0.00     0.071 C 
ATOM     13  O   UNL     1       5.586  14.144  32.436  1.00  0.00    -0.545 OA
ATOM     14  O   UNL     1       6.520  14.571  30.424  1.00  0.00    -0.545 OA
ENDBRANCH   7  12
ENDBRANCH   5   6
BRANCH   2  15
ATOM     15  C   UNL     1      14.481  17.841  34.070  1.00  0.00     0.003 A 
ATOM     16  C   UNL     1      14.998  18.252  32.831  1.00  0.00     0.013 A 
ATOM     17  C   UNL     1      14.857  18.556  35.220  1.00  0.00     0.013 A 
ATOM     18  C   UNL     1      15.884  19.335  32.752  1.00  0.00     0.040 A 
ATOM     19  C   UNL     1      15.752  19.627  35.144  1.00  0.00     0.040 A 
ATOM     20  C   UNL     1      16.257  20.007  33.908  1.00  0.00     0.123 A 
ATOM     21  F   UNL     1      17.107  21.039  33.833  1.00  0.00    -0.207 F 
ENDBRANCH   2  15
BRANCH   3  22
ATOM     22  C   UNL     1      15.006  14.908  35.447  1.00  0.00     0.152 C 
BRANCH  22  23
ATOM     23  N   UNL     1      14.938  14.812  36.904  1.00  0.00    -0.381 N 
ATOM     24  H   UNL     1      14.484  14.056  37.341  1.00  0.00     0.160 HD
BRANCH  23  25
ATOM     25  C   UNL     1      15.538  15.826  37.661  1.00  0.00     0.037 A 
ATOM     26  C   UNL     1      14.721  16.693  38.399  1.00  0.00     0.046 A 
ATOM     27  C   UNL     1      16.909  16.106  37.613  1.00  0.00     0.046 A 
ATOM     28  C   UNL     1      15.274  17.745  39.137  1.00  0.00     0.044 A 
ATOM     29  C   UNL     1      17.455  17.159  38.351  1.00  0.00     0.044 A 
ATOM     30  C   UNL     1      16.643  17.978  39.127  1.00  0.00     0.041 A 
ATOM     31  Cl  UNL     1      14.245  18.763  40.068  1.00  0.00    -0.084 Cl
ATOM     32  Cl  UNL     1      19.151  17.446  38.291  1.00  0.00    -0.084 Cl
ENDBRANCH  23  25
ENDBRANCH  22  23
ENDBRANCH   3  22
TORSDOF 6
ENDMDL
MODEL 4
REMARK VINA RESULT:    -8.292      4.049      6.312
REMARK INTER + INTRA:         -12.747
REMARK INTER:                 -11.322
REMARK INTRA:                  -1.426
REMARK UNBOUND:                -1.547
REMARK SMILES O=C([O-])c1ccc(-n2cc(CNc3cc(Cl)cc(Cl)c3)c(-c3ccc(F)cc3)n2)cc1
REMARK SMILES IDX 29 1 21 2 10 3 9 4 8 5 7 6 4 7 31 8 5 9 30 10 6 11 2 12 1 13
REMARK SMILES IDX 3 14 22 15 28 16 23 17 27 18 24 19 25 20 26 21 11 22 12 23
REMARK SMILES IDX 13 25 14 26 20 27 15 28 18 29 17 30 16 31 19 32
REMARK H PARENT 12 24
ROOT
ATOM      1  N   UNL     1      14.719  16.171  36.259  1.00  0.00    -0.168 NA
ATOM      2  C   UNL     1      15.660  17.034  36.685  1.00  0.00     0.098 A 
ATOM      3  C   UNL     1      15.481  18.310  36.073  1.00  0.00     0.018 A 
ATOM      4  C   UNL     1      14.457  18.125  35.170  1.00  0.00     0.121 A 
ATOM      5  N   UNL     1      13.987  16.846  35.336  1.00  0.00    -0.240 N 
ENDROOT
BRANCH   5   6
ATOM      6  C   UNL     1      12.848  16.268  34.707  1.00  0.00     0.065 A 
ATOM      7  C   UNL     1      10.505  15.228  33.545  1.00  0.00    -0.003 A 
ATOM      8  C   UNL     1      11.250  16.205  32.877  1.00  0.00     0.012 A 
ATOM      9  C   UNL     1      10.938  14.763  34.793  1.00  0.00     0.012 A 
ATOM     10  C   UNL     1      12.415  16.723  33.452  1.00  0.00     0.029 A 
ATOM     11  C   UNL     1      12.114  15.269  35.366  1.00  0.00     0.029 A 
BRANCH   7  12
ATOM     12  C   UNL     1       9.240  14.779  32.908  1.00  0.00     0.071 C 
ATOM     13  O   UNL     1       8.179  14.742  33.504  1.00  0.00    -0.545 OA
ATOM     14  O   UNL     1       9.363  14.457  31.602  1.00  0.00    -0.545 OA
ENDBRANCH   7  12
ENDBRANCH   5   6
BRANCH   2  15
ATOM     15  C   UNL     1      16.671  16.635  37.677  1.00  0.00     0.003 A 
ATOM     16  C   UNL     1      17.942  16.200  37.270  1.00  0.00     0.013 A 
ATOM     17  C   UNL     1      16.394  16.687  39.054  1.00  0.00     0.013 A 
ATOM     18  C   UNL     1      18.898  15.808  38.217  1.00  0.00     0.040 A 
ATOM     19  C   UNL     1      17.342  16.284  39.998  1.00  0.00     0.040 A 
ATOM     20  C   UNL     1      18.588  15.848  39.569  1.00  0.00     0.123 A 
ATOM     21  F   UNL     1      19.500  15.470  40.473  1.00  0.00    -0.207 F 
ENDBRANCH   2  15
BRANCH   3  22
ATOM     22  C   UNL     1      16.182  19.597  36.350  1.00  0.00     0.152 C 
BRANCH  22  23
ATOM     23  N   UNL     1      16.012  20.105  37.710  1.00  0.00    -0.381 N 
ATOM     24  H   UNL     1      16.755  20.085  38.355  1.00  0.00     0.160 HD
BRANCH  23  25
ATOM     25  C   UNL     1      14.761  20.621  38.070  1.00  0.00     0.037 A 
ATOM     26  C   UNL     1      14.195  20.237  39.293  1.00  0.00     0.046 A 
ATOM     27  C   UNL     1      13.979  21.401  37.208  1.00  0.00     0.046 A 
ATOM     28  C   UNL     1      12.931  20.695  39.674  1.00  0.00     0.044 A 
ATOM     29  C   UNL     1      12.716  21.854  37.594  1.00  0.00     0.044 A 
ATOM     30  C   UNL     1      12.188  21.514  38.834  1.00  0.00     0.041 A 
ATOM     31  Cl  UNL     1      12.286  20.239  41.204  1.00  0.00    -0.084 Cl
ATOM     32  Cl  UNL     1      11.803  22.839  36.516  1.00  0.00    -0.084 Cl
ENDBRANCH  23  25
ENDBRANCH  22  23
ENDBRANCH   3  22
TORSDOF 6
ENDMDL
MODEL 5
REMARK VINA RESULT:    -7.937      1.429      2.080
REMARK INTER + INTRA:         -12.267
REMARK INTER:                 -10.620
REMARK INTRA:                  -1.647
REMARK UNBOUND:                -1.547
REMARK SMILES O=C([O-])c1ccc(-n2cc(CNc3cc(Cl)cc(Cl)c3)c(-c3ccc(F)cc3)n2)cc1
REMARK SMILES IDX 29 1 21 2 10 3 9 4 8 5 7 6 4 7 31 8 5 9 30 10 6 11 2 12 1 13
REMARK SMILES IDX 3 14 22 15 28 16 23 17 27 18 24 19 25 20 26 21 11 22 12 23
REMARK SMILES IDX 13 25 14 26 20 27 15 28 18 29 17 30 16 31 19 32
REMARK H PARENT 12 24
ROOT
ATOM      1  N   UNL     1      13.297  19.867  37.713  1.00  0.00    -0.168 NA
ATOM      2  C   UNL     1      13.529  21.079  38.252  1.00  0.00     0.098 A 
ATOM      3  C   UNL     1      14.930  21.297  38.407  1.00  0.00     0.018 A 
ATOM      4  C   UNL     1      15.513  20.103  38.045  1.00  0.00     0.121 A 
ATOM      5  N   UNL     1      14.515  19.279  37.588  1.00  0.00    -0.240 N 
ENDROOT
BRANCH   5   6
ATOM      6  C   UNL     1      14.674  17.998  36.987  1.00  0.00     0.065 A 
ATOM      7  C   UNL     1      15.133  15.512  35.749  1.00  0.00    -0.003 A 
ATOM      8  C   UNL     1      15.429  15.691  37.103  1.00  0.00     0.012 A 
ATOM      9  C   UNL     1      14.597  16.577  35.014  1.00  0.00     0.012 A 
ATOM     10  C   UNL     1      15.201  16.924  37.722  1.00  0.00     0.029 A 
ATOM     11  C   UNL     1      14.354  17.811  35.634  1.00  0.00     0.029 A 
BRANCH   7  12
ATOM     12  C   UNL     1      15.470  14.199  35.142  1.00  0.00     0.071 C 
ATOM     13  O   UNL     1      16.316  13.456  35.605  1.00  0.00    -0.545 OA
ATOM     14  O   UNL     1      14.727  13.884  34.059  1.00  0.00    -0.545 OA
ENDBRANCH   7  12
ENDBRANCH   5   6
BRANCH   2  15
ATOM     15  C   UNL     1      12.424  21.999  38.568  1.00  0.00     0.003 A 
ATOM     16  C   UNL     1      11.905  22.859  37.587  1.00  0.00     0.013 A 
ATOM     17  C   UNL     1      11.856  22.033  39.853  1.00  0.00     0.013 A 
ATOM     18  C   UNL     1      10.862  23.743  37.894  1.00  0.00     0.040 A 
ATOM     19  C   UNL     1      10.825  22.924  40.163  1.00  0.00     0.040 A 
ATOM     20  C   UNL     1      10.336  23.771  39.178  1.00  0.00     0.123 A 
ATOM     21  F   UNL     1       9.342  24.618  39.472  1.00  0.00    -0.207 F 
ENDBRANCH   2  15
BRANCH   3  22
ATOM     22  C   UNL     1      15.653  22.535  38.816  1.00  0.00     0.152 C 
BRANCH  22  23
ATOM     23  N   UNL     1      16.230  23.300  37.713  1.00  0.00    -0.381 N 
ATOM     24  H   UNL     1      17.181  23.557  37.717  1.00  0.00     0.160 HD
BRANCH  23  25
ATOM     25  C   UNL     1      15.393  23.657  36.648  1.00  0.00     0.037 A 
ATOM     26  C   UNL     1      15.450  22.913  35.462  1.00  0.00     0.046 A 
ATOM     27  C   UNL     1      14.594  24.807  36.658  1.00  0.00     0.046 A 
ATOM     28  C   UNL     1      14.661  23.259  34.361  1.00  0.00     0.044 A 
ATOM     29  C   UNL     1      13.810  25.148  35.554  1.00  0.00     0.044 A 
ATOM     30  C   UNL     1      13.829  24.371  34.402  1.00  0.00     0.041 A 
ATOM     31  Cl  UNL     1      14.723  22.297  32.935  1.00  0.00    -0.084 Cl
ATOM     32  Cl  UNL     1      12.815  26.552  35.622  1.00  0.00    -0.084 Cl
ENDBRANCH  23  25
ENDBRANCH  22  23
ENDBRANCH   3  22
TORSDOF 6
ENDMDL
MODEL 6
REMARK VINA RESULT:    -7.923      5.211      8.540
REMARK INTER + INTRA:         -12.249
REMARK INTER:                 -11.030
REMARK INTRA:                  -1.219
REMARK UNBOUND:                -1.547
REMARK SMILES O=C([O-])c1ccc(-n2cc(CNc3cc(Cl)cc(Cl)c3)c(-c3ccc(F)cc3)n2)cc1
REMARK SMILES IDX 29 1 21 2 10 3 9 4 8 5 7 6 4 7 31 8 5 9 30 10 6 11 2 12 1 13
REMARK SMILES IDX 3 14 22 15 28 16 23 17 27 18 24 19 25 20 26 21 11 22 12 23
REMARK SMILES IDX 13 25 14 26 20 27 15 28 18 29 17 30 16 31 19 32
REMARK H PARENT 12 24
ROOT
ATOM      1  N   UNL     1      13.027  22.162  35.872  1.00  0.00    -0.168 NA
ATOM      2  C   UNL     1      13.744  21.661  34.848  1.00  0.00     0.098 A 
ATOM      3  C   UNL     1      14.403  20.459  35.242  1.00  0.00     0.018 A 
ATOM      4  C   UNL     1      14.137  20.337  36.588  1.00  0.00     0.121 A 
ATOM      5  N   UNL     1      13.270  21.345  36.929  1.00  0.00    -0.240 N 
ENDROOT
BRANCH   5   6
ATOM      6  C   UNL     1      12.625  21.526  38.185  1.00  0.00     0.065 A 
ATOM      7  C   UNL     1      11.213  21.829  40.602  1.00  0.00    -0.003 A 
ATOM      8  C   UNL     1      11.951  20.667  40.356  1.00  0.00     0.012 A 
ATOM      9  C   UNL     1      11.190  22.847  39.640  1.00  0.00     0.012 A 
ATOM     10  C   UNL     1      12.654  20.514  39.157  1.00  0.00     0.029 A 
ATOM     11  C   UNL     1      11.905  22.703  38.442  1.00  0.00     0.029 A 
BRANCH   7  12
ATOM     12  C   UNL     1      10.433  21.891  41.864  1.00  0.00     0.071 C 
ATOM     13  O   UNL     1      10.449  22.859  42.603  1.00  0.00    -0.545 OA
ATOM     14  O   UNL     1       9.672  20.800  42.097  1.00  0.00    -0.545 OA
ENDBRANCH   7  12
ENDBRANCH   5   6
BRANCH   2  15
ATOM     15  C   UNL     1      13.754  22.315  33.530  1.00  0.00     0.003 A 
ATOM     16  C   UNL     1      13.012  21.787  32.462  1.00  0.00     0.013 A 
ATOM     17  C   UNL     1      14.497  23.488  33.309  1.00  0.00     0.013 A 
ATOM     18  C   UNL     1      13.033  22.404  31.204  1.00  0.00     0.040 A 
ATOM     19  C   UNL     1      14.530  24.096  32.052  1.00  0.00     0.040 A 
ATOM     20  C   UNL     1      13.795  23.548  31.010  1.00  0.00     0.123 A 
ATOM     21  F   UNL     1      13.818  24.135  29.807  1.00  0.00    -0.207 F 
ENDBRANCH   2  15
BRANCH   3  22
ATOM     22  C   UNL     1      15.176  19.491  34.411  1.00  0.00     0.152 C 
BRANCH  22  23
ATOM     23  N   UNL     1      14.366  18.685  33.499  1.00  0.00    -0.381 N 
ATOM     24  H   UNL     1      14.221  18.965  32.566  1.00  0.00     0.160 HD
BRANCH  23  25
ATOM     25  C   UNL     1      13.798  17.503  33.991  1.00  0.00     0.037 A 
ATOM     26  C   UNL     1      14.477  16.788  34.987  1.00  0.00     0.046 A 
ATOM     27  C   UNL     1      12.648  16.921  33.443  1.00  0.00     0.046 A 
ATOM     28  C   UNL     1      13.968  15.582  35.478  1.00  0.00     0.044 A 
ATOM     29  C   UNL     1      12.145  15.716  33.936  1.00  0.00     0.044 A 
ATOM     30  C   UNL     1      12.795  15.044  34.965  1.00  0.00     0.041 A 
ATOM     31  Cl  UNL     1      14.805  14.754  36.733  1.00  0.00    -0.084 Cl
ATOM     32  Cl  UNL     1      10.708  15.055  33.257  1.00  0.00    -0.084 Cl
ENDBRANCH  23  25
ENDBRANCH  22  23
ENDBRANCH   3  22
TORSDOF 6
ENDMDL
MODEL 7
REMARK VINA RESULT:    -7.881      5.174      8.455
REMARK INTER + INTRA:         -12.193
REMARK INTER:                 -10.984
REMARK INTRA:                  -1.209
REMARK UNBOUND:                -1.547
REMARK SMILES O=C([O-])c1ccc(-n2cc(CNc3cc(Cl)cc(Cl)c3)c(-c3ccc(F)cc3)n2)cc1
REMARK SMILES IDX 29 1 21 2 10 3 9 4 8 5 7 6 4 7 31 8 5 9 30 10 6 11 2 12 1 13
REMARK SMILES IDX 3 14 22 15 28 16 23 17 27 18 24 19 25 20 26 21 11 22 12 23
REMARK SMILES IDX 13 25 14 26 20 27 15 28 18 29 17 30 16 31 19 32
REMARK H PARENT 12 24
ROOT
ATOM      1  N   UNL     1      13.049  22.142  35.995  1.00  0.00    -0.168 NA
ATOM      2  C   UNL     1      13.770  21.652  34.969  1.00  0.00     0.098 A 
ATOM      3  C   UNL     1      14.434  20.450  35.356  1.00  0.00     0.018 A 
ATOM      4  C   UNL     1      14.165  20.318  36.701  1.00  0.00     0.121 A 
ATOM      5  N   UNL     1      13.294  21.320  37.047  1.00  0.00    -0.240 N 
ENDROOT
BRANCH   5   6
ATOM      6  C   UNL     1      12.645  21.490  38.303  1.00  0.00     0.065 A 
ATOM      7  C   UNL     1      11.227  21.773  40.718  1.00  0.00    -0.003 A 
ATOM      8  C   UNL     1      11.960  20.611  40.462  1.00  0.00     0.012 A 
ATOM      9  C   UNL     1      11.211  22.802  39.767  1.00  0.00     0.012 A 
ATOM     10  C   UNL     1      12.667  20.468  39.264  1.00  0.00     0.029 A 
ATOM     11  C   UNL     1      11.929  22.668  38.570  1.00  0.00     0.029 A 
BRANCH   7  12
ATOM     12  C   UNL     1      10.442  21.825  41.979  1.00  0.00     0.071 C 
ATOM     13  O   UNL     1      10.467  22.782  42.732  1.00  0.00    -0.545 OA
ATOM     14  O   UNL     1       9.669  20.739  42.193  1.00  0.00    -0.545 OA
ENDBRANCH   7  12
ENDBRANCH   5   6
BRANCH   2  15
ATOM     15  C   UNL     1      13.780  22.314  33.655  1.00  0.00     0.003 A 
ATOM     16  C   UNL     1      14.508  23.498  33.454  1.00  0.00     0.013 A 
ATOM     17  C   UNL     1      13.070  21.776  32.568  1.00  0.00     0.013 A 
ATOM     18  C   UNL     1      14.505  24.133  32.206  1.00  0.00     0.040 A 
ATOM     19  C   UNL     1      13.057  22.416  31.326  1.00  0.00     0.040 A 
ATOM     20  C   UNL     1      13.776  23.590  31.157  1.00  0.00     0.123 A 
ATOM     21  F   UNL     1      13.771  24.200  29.965  1.00  0.00    -0.207 F 
ENDBRANCH   2  15
BRANCH   3  22
ATOM     22  C   UNL     1      15.212  19.490  34.521  1.00  0.00     0.152 C 
BRANCH  22  23
ATOM     23  N   UNL     1      14.408  18.695  33.594  1.00  0.00    -0.381 N 
ATOM     24  H   UNL     1      14.194  19.029  32.693  1.00  0.00     0.160 HD
BRANCH  23  25
ATOM     25  C   UNL     1      13.949  17.444  34.025  1.00  0.00     0.037 A 
ATOM     26  C   UNL     1      12.751  16.943  33.496  1.00  0.00     0.046 A 
ATOM     27  C   UNL     1      14.555  16.722  35.060  1.00  0.00     0.046 A 
ATOM     28  C   UNL     1      12.235  15.718  33.928  1.00  0.00     0.044 A 
ATOM     29  C   UNL     1      14.034  15.500  35.488  1.00  0.00     0.044 A 
ATOM     30  C   UNL     1      12.876  14.983  34.916  1.00  0.00     0.041 A 
ATOM     31  Cl  UNL     1      10.785  15.111  33.225  1.00  0.00    -0.084 Cl
ATOM     32  Cl  UNL     1      14.832  14.629  36.740  1.00  0.00    -0.084 Cl
ENDBRANCH  23  25
ENDBRANCH  22  23
ENDBRANCH   3  22
TORSDOF 6
ENDMDL
MODEL 8
REMARK VINA RESULT:    -7.645      4.536      6.411
REMARK INTER + INTRA:         -11.873
REMARK INTER:                 -10.086
REMARK INTRA:                  -1.787
REMARK UNBOUND:                -1.547
REMARK SMILES O=C([O-])c1ccc(-n2cc(CNc3cc(Cl)cc(Cl)c3)c(-c3ccc(F)cc3)n2)cc1
REMARK SMILES IDX 29 1 21 2 10 3 9 4 8 5 7 6 4 7 31 8 5 9 30 10 6 11 2 12 1 13
REMARK SMILES IDX 3 14 22 15 28 16 23 17 27 18 24 19 25 20 26 21 11 22 12 23
REMARK SMILES IDX 13 25 14 26 20 27 15 28 18 29 17 30 16 31 19 32
REMARK H PARENT 12 24
ROOT
ATOM      1  N   UNL     1      13.178  16.275  35.447  1.00  0.00    -0.168 NA
ATOM      2  C   UNL     1      14.275  17.030  35.650  1.00  0.00     0.098 A 
ATOM      3  C   UNL     1      14.495  17.899  34.540  1.00  0.00     0.018 A 
ATOM      4  C   UNL     1      13.541  17.536  33.615  1.00  0.00     0.121 A 
ATOM      5  N   UNL     1      12.736  16.593  34.204  1.00  0.00    -0.240 N 
ENDROOT
BRANCH   5   6
ATOM      6  C   UNL     1      11.542  16.034  33.663  1.00  0.00     0.065 A 
ATOM      7  C   UNL     1       9.102  15.048  32.666  1.00  0.00    -0.003 A 
ATOM      8  C   UNL     1       9.895  15.891  31.882  1.00  0.00     0.012 A 
ATOM      9  C   UNL     1       9.535  14.689  33.949  1.00  0.00     0.012 A 
ATOM     10  C   UNL     1      11.109  16.382  32.375  1.00  0.00     0.029 A 
ATOM     11  C   UNL     1      10.758  15.167  34.440  1.00  0.00     0.029 A 
BRANCH   7  12
ATOM     12  C   UNL     1       7.792  14.625  32.107  1.00  0.00     0.071 C 
ATOM     13  O   UNL     1       6.820  14.397  32.804  1.00  0.00    -0.545 OA
ATOM     14  O   UNL     1       7.763  14.559  30.758  1.00  0.00    -0.545 OA
ENDBRANCH   7  12
ENDBRANCH   5   6
BRANCH   2  15
ATOM     15  C   UNL     1      15.054  16.928  36.895  1.00  0.00     0.003 A 
ATOM     16  C   UNL     1      14.901  17.880  37.915  1.00  0.00     0.013 A 
ATOM     17  C   UNL     1      15.960  15.873  37.097  1.00  0.00     0.013 A 
ATOM     18  C   UNL     1      15.653  17.788  39.094  1.00  0.00     0.040 A 
ATOM     19  C   UNL     1      16.720  15.789  38.267  1.00  0.00     0.040 A 
ATOM     20  C   UNL     1      16.558  16.748  39.256  1.00  0.00     0.123 A 
ATOM     21  F   UNL     1      17.279  16.663  40.381  1.00  0.00    -0.207 F 
ENDBRANCH   2  15
BRANCH   3  22
ATOM     22  C   UNL     1      15.486  19.003  34.388  1.00  0.00     0.152 C 
BRANCH  22  23
ATOM     23  N   UNL     1      14.935  20.347  34.547  1.00  0.00    -0.381 N 
ATOM     24  H   UNL     1      14.611  20.858  33.770  1.00  0.00     0.160 HD
BRANCH  23  25
ATOM     25  C   UNL     1      14.881  20.890  35.837  1.00  0.00     0.037 A 
ATOM     26  C   UNL     1      16.080  21.209  36.489  1.00  0.00     0.046 A 
ATOM     27  C   UNL     1      13.691  21.007  36.568  1.00  0.00     0.046 A 
ATOM     28  C   UNL     1      16.074  21.715  37.792  1.00  0.00     0.044 A 
ATOM     29  C   UNL     1      13.693  21.512  37.869  1.00  0.00     0.044 A 
ATOM     30  C   UNL     1      14.883  21.880  38.487  1.00  0.00     0.041 A 
ATOM     31  Cl  UNL     1      17.563  22.138  38.546  1.00  0.00    -0.084 Cl
ATOM     32  Cl  UNL     1      12.204  21.672  38.718  1.00  0.00    -0.084 Cl
ENDBRANCH  23  25
ENDBRANCH  22  23
ENDBRANCH   3  22
TORSDOF 6
ENDMDL
MODEL 9
REMARK VINA RESULT:    -7.449      5.503      7.834
REMARK INTER + INTRA:         -11.609
REMARK INTER:                  -9.287
REMARK INTRA:                  -2.322
REMARK UNBOUND:                -1.547
REMARK SMILES O=C([O-])c1ccc(-n2cc(CNc3cc(Cl)cc(Cl)c3)c(-c3ccc(F)cc3)n2)cc1
REMARK SMILES IDX 29 1 21 2 10 3 9 4 8 5 7 6 4 7 31 8 5 9 30 10 6 11 2 12 1 13
REMARK SMILES IDX 3 14 22 15 28 16 23 17 27 18 24 19 25 20 26 21 11 22 12 23
REMARK SMILES IDX 13 25 14 26 20 27 15 28 18 29 17 30 16 31 19 32
REMARK H PARENT 12 24
ROOT
ATOM      1  N   UNL     1      12.755  22.462  35.809  1.00  0.00    -0.168 NA
ATOM      2  C   UNL     1      12.963  23.215  34.712  1.00  0.00     0.098 A 
ATOM      3  C   UNL     1      12.576  24.566  34.953  1.00  0.00     0.018 A 
ATOM      4  C   UNL     1      12.015  24.552  36.211  1.00  0.00     0.121 A 
ATOM      5  N   UNL     1      12.179  23.288  36.720  1.00  0.00    -0.240 N 
ENDROOT
BRANCH   5   6
ATOM      6  C   UNL     1      11.870  22.853  38.041  1.00  0.00     0.065 A 
ATOM      7  C   UNL     1      11.129  21.925  40.593  1.00  0.00    -0.003 A 
ATOM      8  C   UNL     1      12.024  21.192  39.807  1.00  0.00     0.012 A 
ATOM      9  C   UNL     1      10.611  23.131  40.104  1.00  0.00     0.012 A 
ATOM     10  C   UNL     1      12.395  21.651  38.540  1.00  0.00     0.029 A 
ATOM     11  C   UNL     1      10.991  23.602  38.839  1.00  0.00     0.029 A 
BRANCH   7  12
ATOM     12  C   UNL     1      10.724  21.339  41.896  1.00  0.00     0.071 C 
ATOM     13  O   UNL     1      11.529  20.969  42.732  1.00  0.00    -0.545 OA
ATOM     14  O   UNL     1       9.389  21.293  42.090  1.00  0.00    -0.545 OA
ENDBRANCH   7  12
ENDBRANCH   5   6
BRANCH   2  15
ATOM     15  C   UNL     1      13.549  22.640  33.490  1.00  0.00     0.003 A 
ATOM     16  C   UNL     1      14.927  22.386  33.408  1.00  0.00     0.013 A 
ATOM     17  C   UNL     1      12.745  22.322  32.382  1.00  0.00     0.013 A 
ATOM     18  C   UNL     1      15.484  21.851  32.239  1.00  0.00     0.040 A 
ATOM     19  C   UNL     1      13.302  21.801  31.212  1.00  0.00     0.040 A 
ATOM     20  C   UNL     1      14.669  21.569  31.152  1.00  0.00     0.123 A 
ATOM     21  F   UNL     1      15.202  21.061  30.034  1.00  0.00    -0.207 F 
ENDBRANCH   2  15
BRANCH   3  22
ATOM     22  C   UNL     1      12.762  25.769  34.092  1.00  0.00     0.152 C 
BRANCH  22  23
ATOM     23  N   UNL     1      14.132  26.276  34.037  1.00  0.00    -0.381 N 
ATOM     24  H   UNL     1      14.497  26.833  34.763  1.00  0.00     0.160 HD
BRANCH  23  25
ATOM     25  C   UNL     1      14.912  25.949  32.920  1.00  0.00     0.037 A 
ATOM     26  C   UNL     1      14.271  25.611  31.721  1.00  0.00     0.046 A 
ATOM     27  C   UNL     1      16.305  25.810  32.976  1.00  0.00     0.046 A 
ATOM     28  C   UNL     1      15.010  25.239  30.594  1.00  0.00     0.044 A 
ATOM     29  C   UNL     1      17.036  25.436  31.847  1.00  0.00     0.044 A 
ATOM     30  C   UNL     1      16.395  25.159  30.645  1.00  0.00     0.041 A 
ATOM     31  Cl  UNL     1      14.191  24.874  29.124  1.00  0.00    -0.084 Cl
ATOM     32  Cl  UNL     1      18.750  25.311  31.950  1.00  0.00    -0.084 Cl
ENDBRANCH  23  25
ENDBRANCH  22  23
ENDBRANCH   3  22
TORSDOF 6
ENDMDL
MODEL 10
REMARK VINA RESULT:    -7.431      5.295      7.914
REMARK INTER + INTRA:         -11.584
REMARK INTER:                  -9.201
REMARK INTRA:                  -2.383
REMARK UNBOUND:                -1.547
REMARK SMILES O=C([O-])c1ccc(-n2cc(CNc3cc(Cl)cc(Cl)c3)c(-c3ccc(F)cc3)n2)cc1
REMARK SMILES IDX 29 1 21 2 10 3 9 4 8 5 7 6 4 7 31 8 5 9 30 10 6 11 2 12 1 13
REMARK SMILES IDX 3 14 22 15 28 16 23 17 27 18 24 19 25 20 26 21 11 22 12 23
REMARK SMILES IDX 13 25 14 26 20 27 15 28 18 29 17 30 16 31 19 32
REMARK H PARENT 12 24
ROOT
ATOM      1  N   UNL     1      13.633  21.382  35.990  1.00  0.00    -0.168 NA
ATOM      2  C   UNL     1      13.868  21.760  34.719  1.00  0.00     0.098 A 
ATOM      3  C   UNL     1      13.094  22.912  34.390  1.00  0.00     0.018 A 
ATOM      4  C   UNL     1      12.298  23.127  35.494  1.00  0.00     0.121 A 
ATOM      5  N   UNL     1      12.676  22.224  36.456  1.00  0.00    -0.240 N 
ENDROOT
BRANCH   5   6
ATOM      6  C   UNL     1      12.215  22.170  37.803  1.00  0.00     0.065 A 
ATOM      7  C   UNL     1      11.160  22.019  40.407  1.00  0.00    -0.003 A 
ATOM      8  C   UNL     1      11.829  20.924  39.853  1.00  0.00     0.012 A 
ATOM      9  C   UNL     1      11.027  23.197  39.660  1.00  0.00     0.012 A 
ATOM     10  C   UNL     1      12.355  20.996  38.560  1.00  0.00     0.029 A 
ATOM     11  C   UNL     1      11.565  23.278  38.368  1.00  0.00     0.029 A 
BRANCH   7  12
ATOM     12  C   UNL     1      10.563  21.846  41.757  1.00  0.00     0.071 C 
ATOM     13  O   UNL     1      10.448  22.763  42.550  1.00  0.00    -0.545 OA
ATOM     14  O   UNL     1      10.122  20.595  42.009  1.00  0.00    -0.545 OA
ENDBRANCH   7  12
ENDBRANCH   5   6
BRANCH   2  15
ATOM     15  C   UNL     1      14.835  21.042  33.874  1.00  0.00     0.003 A 
ATOM     16  C   UNL     1      14.412  20.353  32.726  1.00  0.00     0.013 A 
ATOM     17  C   UNL     1      16.205  21.035  34.188  1.00  0.00     0.013 A 
ATOM     18  C   UNL     1      15.334  19.659  31.931  1.00  0.00     0.040 A 
ATOM     19  C   UNL     1      17.123  20.333  33.402  1.00  0.00     0.040 A 
ATOM     20  C   UNL     1      16.677  19.651  32.279  1.00  0.00     0.123 A 
ATOM     21  F   UNL     1      17.557  18.985  31.520  1.00  0.00    -0.207 F 
ENDBRANCH   2  15
BRANCH   3  22
ATOM     22  C   UNL     1      13.137  23.759  33.164  1.00  0.00     0.152 C 
BRANCH  22  23
ATOM     23  N   UNL     1      14.283  24.663  33.084  1.00  0.00    -0.381 N 
ATOM     24  H   UNL     1      14.250  25.560  33.491  1.00  0.00     0.160 HD
BRANCH  23  25
ATOM     25  C   UNL     1      15.428  24.219  32.412  1.00  0.00     0.037 A 
ATOM     26  C   UNL     1      15.277  23.473  31.235  1.00  0.00     0.046 A 
ATOM     27  C   UNL     1      16.722  24.368  32.927  1.00  0.00     0.046 A 
ATOM     28  C   UNL     1      16.392  22.976  30.554  1.00  0.00     0.044 A 
ATOM     29  C   UNL     1      17.831  23.867  32.243  1.00  0.00     0.044 A 
ATOM     30  C   UNL     1      17.675  23.178  31.045  1.00  0.00     0.041 A 
ATOM     31  Cl  UNL     1      16.172  22.101  29.087  1.00  0.00    -0.084 Cl
ATOM     32  Cl  UNL     1      19.407  24.102  32.895  1.00  0.00    -0.084 Cl
ENDBRANCH  23  25
ENDBRANCH  22  23
ENDBRANCH   3  22
TORSDOF 6
ENDMDL
MODEL 11
REMARK VINA RESULT:    -7.386      4.305      6.710
REMARK INTER + INTRA:         -11.524
REMARK INTER:                 -10.583
REMARK INTRA:                  -0.941
REMARK UNBOUND:                -1.547
REMARK SMILES O=C([O-])c1ccc(-n2cc(CNc3cc(Cl)cc(Cl)c3)c(-c3ccc(F)cc3)n2)cc1
REMARK SMILES IDX 29 1 21 2 10 3 9 4 8 5 7 6 4 7 31 8 5 9 30 10 6 11 2 12 1 13
REMARK SMILES IDX 3 14 22 15 28 16 23 17 27 18 24 19 25 20 26 21 11 22 12 23
REMARK SMILES IDX 13 25 14 26 20 27 15 28 18 29 17 30 16 31 19 32
REMARK H PARENT 12 24
ROOT
ATOM      1  N   UNL     1      12.858  21.714  36.653  1.00  0.00    -0.168 NA
ATOM      2  C   UNL     1      13.289  21.391  37.887  1.00  0.00     0.098 A 
ATOM      3  C   UNL     1      14.649  20.961  37.843  1.00  0.00     0.018 A 
ATOM      4  C   UNL     1      14.965  20.931  36.502  1.00  0.00     0.121 A 
ATOM      5  N   UNL     1      13.888  21.433  35.815  1.00  0.00    -0.240 N 
ENDROOT
BRANCH   5   6
ATOM      6  C   UNL     1      13.821  21.711  34.419  1.00  0.00     0.065 A 
ATOM      7  C   UNL     1      13.833  22.331  31.674  1.00  0.00    -0.003 A 
ATOM      8  C   UNL     1      14.282  21.084  32.117  1.00  0.00     0.012 A 
ATOM      9  C   UNL     1      13.366  23.268  32.606  1.00  0.00     0.012 A 
ATOM     10  C   UNL     1      14.277  20.772  33.481  1.00  0.00     0.029 A 
ATOM     11  C   UNL     1      13.347  22.954  33.973  1.00  0.00     0.029 A 
BRANCH   7  12
ATOM     12  C   UNL     1      13.936  22.619  30.220  1.00  0.00     0.071 C 
ATOM     13  O   UNL     1      13.045  23.161  29.590  1.00  0.00    -0.545 OA
ATOM     14  O   UNL     1      15.118  22.268  29.671  1.00  0.00    -0.545 OA
ENDBRANCH   7  12
ENDBRANCH   5   6
BRANCH   2  15
ATOM     15  C   UNL     1      12.416  21.531  39.063  1.00  0.00     0.003 A 
ATOM     16  C   UNL     1      11.844  22.771  39.388  1.00  0.00     0.013 A 
ATOM     17  C   UNL     1      12.126  20.428  39.885  1.00  0.00     0.013 A 
ATOM     18  C   UNL     1      11.024  22.905  40.516  1.00  0.00     0.040 A 
ATOM     19  C   UNL     1      11.319  20.563  41.017  1.00  0.00     0.040 A 
ATOM     20  C   UNL     1      10.774  21.803  41.322  1.00  0.00     0.123 A 
ATOM     21  F   UNL     1       9.993  21.932  42.402  1.00  0.00    -0.207 F 
ENDBRANCH   2  15
BRANCH   3  22
ATOM     22  C   UNL     1      15.577  20.651  38.968  1.00  0.00     0.152 C 
BRANCH  22  23
ATOM     23  N   UNL     1      15.179  19.513  39.794  1.00  0.00    -0.381 N 
ATOM     24  H   UNL     1      14.705  19.647  40.648  1.00  0.00     0.160 HD
BRANCH  23  25
ATOM     25  C   UNL     1      15.491  18.226  39.340  1.00  0.00     0.037 A 
ATOM     26  C   UNL     1      16.701  17.642  39.737  1.00  0.00     0.046 A 
ATOM     27  C   UNL     1      14.716  17.540  38.396  1.00  0.00     0.046 A 
ATOM     28  C   UNL     1      17.071  16.375  39.275  1.00  0.00     0.044 A 
ATOM     29  C   UNL     1      15.092  16.277  37.937  1.00  0.00     0.044 A 
ATOM     30  C   UNL     1      16.267  15.680  38.382  1.00  0.00     0.041 A 
ATOM     31  Cl  UNL     1      18.544  15.669  39.819  1.00  0.00    -0.084 Cl
ATOM     32  Cl  UNL     1      14.092  15.454  36.802  1.00  0.00    -0.084 Cl
ENDBRANCH  23  25
ENDBRANCH  22  23
ENDBRANCH   3  22
TORSDOF 6
ENDMDL
MODEL 12
REMARK VINA RESULT:    -7.325      4.974      7.808
REMARK INTER + INTRA:         -11.441
REMARK INTER:                  -9.120
REMARK INTRA:                  -2.321
REMARK UNBOUND:                -1.547
REMARK SMILES O=C([O-])c1ccc(-n2cc(CNc3cc(Cl)cc(Cl)c3)c(-c3ccc(F)cc3)n2)cc1
REMARK SMILES IDX 29 1 21 2 10 3 9 4 8 5 7 6 4 7 31 8 5 9 30 10 6 11 2 12 1 13
REMARK SMILES IDX 3 14 22 15 28 16 23 17 27 18 24 19 25 20 26 21 11 22 12 23
REMARK SMILES IDX 13 25 14 26 20 27 15 28 18 29 17 30 16 31 19 32
REMARK H PARENT 12 24
ROOT
ATOM      1  N   UNL     1      14.304  22.063  36.670  1.00  0.00    -0.168 NA
ATOM      2  C   UNL     1      14.807  22.595  35.540  1.00  0.00     0.098 A 
ATOM      3  C   UNL     1      14.409  23.959  35.412  1.00  0.00     0.018 A 
ATOM      4  C   UNL     1      13.546  24.174  36.463  1.00  0.00     0.121 A 
ATOM      5  N   UNL     1      13.538  23.035  37.228  1.00  0.00    -0.240 N 
ENDROOT
BRANCH   5   6
ATOM      6  C   UNL     1      12.891  22.855  38.484  1.00  0.00     0.065 A 
ATOM      7  C   UNL     1      11.558  22.357  40.913  1.00  0.00    -0.003 A 
ATOM      8  C   UNL     1      12.913  22.043  40.774  1.00  0.00     0.012 A 
ATOM      9  C   UNL     1      10.870  22.931  39.836  1.00  0.00     0.012 A 
ATOM     10  C   UNL     1      13.578  22.290  39.569  1.00  0.00     0.029 A 
ATOM     11  C   UNL     1      11.537  23.193  38.631  1.00  0.00     0.029 A 
BRANCH   7  12
ATOM     12  C   UNL     1      10.900  21.999  42.196  1.00  0.00     0.071 C 
ATOM     13  O   UNL     1      11.049  20.917  42.733  1.00  0.00    -0.545 OA
ATOM     14  O   UNL     1      10.159  22.992  42.732  1.00  0.00    -0.545 OA
ENDBRANCH   7  12
ENDBRANCH   5   6
BRANCH   2  15
ATOM     15  C   UNL     1      15.669  21.810  34.642  1.00  0.00     0.003 A 
ATOM     16  C   UNL     1      15.196  20.631  34.044  1.00  0.00     0.013 A 
ATOM     17  C   UNL     1      16.980  22.225  34.352  1.00  0.00     0.013 A 
ATOM     18  C   UNL     1      16.023  19.878  33.200  1.00  0.00     0.040 A 
ATOM     19  C   UNL     1      17.810  21.468  33.521  1.00  0.00     0.040 A 
ATOM     20  C   UNL     1      17.322  20.300  32.951  1.00  0.00     0.123 A 
ATOM     21  F   UNL     1      18.113  19.579  32.147  1.00  0.00    -0.207 F 
ENDBRANCH   2  15
BRANCH   3  22
ATOM     22  C   UNL     1      14.843  24.979  34.413  1.00  0.00     0.152 C 
BRANCH  22  23
ATOM     23  N   UNL     1      14.030  25.031  33.200  1.00  0.00    -0.381 N 
ATOM     24  H   UNL     1      13.408  25.778  33.038  1.00  0.00     0.160 HD
BRANCH  23  25
ATOM     25  C   UNL     1      14.158  23.989  32.274  1.00  0.00     0.037 A 
ATOM     26  C   UNL     1      13.117  23.058  32.153  1.00  0.00     0.046 A 
ATOM     27  C   UNL     1      15.334  23.747  31.553  1.00  0.00     0.046 A 
ATOM     28  C   UNL     1      13.220  21.979  31.270  1.00  0.00     0.044 A 
ATOM     29  C   UNL     1      15.431  22.666  30.674  1.00  0.00     0.044 A 
ATOM     30  C   UNL     1      14.370  21.781  30.518  1.00  0.00     0.041 A 
ATOM     31  Cl  UNL     1      11.904  20.880  31.115  1.00  0.00    -0.084 Cl
ATOM     32  Cl  UNL     1      16.883  22.427  29.781  1.00  0.00    -0.084 Cl
ENDBRANCH  23  25
ENDBRANCH  22  23
ENDBRANCH   3  22
TORSDOF 6
ENDMDL
MODEL 13
REMARK VINA RESULT:    -7.317      4.415      6.815
REMARK INTER + INTRA:         -11.431
REMARK INTER:                 -10.505
REMARK INTRA:                  -0.926
REMARK UNBOUND:                -1.547
REMARK SMILES O=C([O-])c1ccc(-n2cc(CNc3cc(Cl)cc(Cl)c3)c(-c3ccc(F)cc3)n2)cc1
REMARK SMILES IDX 29 1 21 2 10 3 9 4 8 5 7 6 4 7 31 8 5 9 30 10 6 11 2 12 1 13
REMARK SMILES IDX 3 14 22 15 28 16 23 17 27 18 24 19 25 20 26 21 11 22 12 23
REMARK SMILES IDX 13 25 14 26 20 27 15 28 18 29 17 30 16 31 19 32
REMARK H PARENT 12 24
ROOT
ATOM      1  N   UNL     1      12.940  21.951  36.308  1.00  0.00    -0.168 NA
ATOM      2  C   UNL     1      13.375  21.591  37.530  1.00  0.00     0.098 A 
ATOM      3  C   UNL     1      14.724  21.134  37.466  1.00  0.00     0.018 A 
ATOM      4  C   UNL     1      15.029  21.127  36.122  1.00  0.00     0.121 A 
ATOM      5  N   UNL     1      13.958  21.668  35.455  1.00  0.00    -0.240 N 
ENDROOT
BRANCH   5   6
ATOM      6  C   UNL     1      13.886  21.978  34.067  1.00  0.00     0.065 A 
ATOM      7  C   UNL     1      13.889  22.658  31.336  1.00  0.00    -0.003 A 
ATOM      8  C   UNL     1      14.309  21.390  31.747  1.00  0.00     0.012 A 
ATOM      9  C   UNL     1      13.456  23.586  32.292  1.00  0.00     0.012 A 
ATOM     10  C   UNL     1      14.308  21.049  33.103  1.00  0.00     0.029 A 
ATOM     11  C   UNL     1      13.441  23.242  33.652  1.00  0.00     0.029 A 
BRANCH   7  12
ATOM     12  C   UNL     1      13.987  22.976  29.888  1.00  0.00     0.071 C 
ATOM     13  O   UNL     1      13.055  23.426  29.247  1.00  0.00    -0.545 OA
ATOM     14  O   UNL     1      15.210  22.762  29.357  1.00  0.00    -0.545 OA
ENDBRANCH   7  12
ENDBRANCH   5   6
BRANCH   2  15
ATOM     15  C   UNL     1      12.514  21.724  38.717  1.00  0.00     0.003 A 
ATOM     16  C   UNL     1      12.014  22.977  39.104  1.00  0.00     0.013 A 
ATOM     17  C   UNL     1      12.165  20.600  39.487  1.00  0.00     0.013 A 
ATOM     18  C   UNL     1      11.206  23.102  40.241  1.00  0.00     0.040 A 
ATOM     19  C   UNL     1      11.370  20.727  40.629  1.00  0.00     0.040 A 
ATOM     20  C   UNL     1      10.897  21.978  40.995  1.00  0.00     0.123 A 
ATOM     21  F   UNL     1      10.127  22.099  42.084  1.00  0.00    -0.207 F 
ENDBRANCH   2  15
BRANCH   3  22
ATOM     22  C   UNL     1      15.655  20.779  38.576  1.00  0.00     0.152 C 
BRANCH  22  23
ATOM     23  N   UNL     1      15.205  19.676  39.423  1.00  0.00    -0.381 N 
ATOM     24  H   UNL     1      14.651  19.843  40.220  1.00  0.00     0.160 HD
BRANCH  23  25
ATOM     25  C   UNL     1      15.584  18.375  39.069  1.00  0.00     0.037 A 
ATOM     26  C   UNL     1      14.767  17.644  38.197  1.00  0.00     0.046 A 
ATOM     27  C   UNL     1      16.674  17.713  39.649  1.00  0.00     0.046 A 
ATOM     28  C   UNL     1      15.086  16.328  37.849  1.00  0.00     0.044 A 
ATOM     29  C   UNL     1      16.986  16.398  39.299  1.00  0.00     0.044 A 
ATOM     30  C   UNL     1      16.202  15.701  38.388  1.00  0.00     0.041 A 
ATOM     31  Cl  UNL     1      14.083  15.475  36.740  1.00  0.00    -0.084 Cl
ATOM     32  Cl  UNL     1      18.356  15.634  40.010  1.00  0.00    -0.084 Cl
ENDBRANCH  23  25
ENDBRANCH  22  23
ENDBRANCH   3  22
TORSDOF 6
ENDMDL
MODEL 14
REMARK VINA RESULT:    -7.297      5.087      8.067
REMARK INTER + INTRA:         -11.404
REMARK INTER:                 -10.284
REMARK INTRA:                  -1.120
REMARK UNBOUND:                -1.547
REMARK SMILES O=C([O-])c1ccc(-n2cc(CNc3cc(Cl)cc(Cl)c3)c(-c3ccc(F)cc3)n2)cc1
REMARK SMILES IDX 29 1 21 2 10 3 9 4 8 5 7 6 4 7 31 8 5 9 30 10 6 11 2 12 1 13
REMARK SMILES IDX 3 14 22 15 28 16 23 17 27 18 24 19 25 20 26 21 11 22 12 23
REMARK SMILES IDX 13 25 14 26 20 27 15 28 18 29 17 30 16 31 19 32
REMARK H PARENT 12 24
ROOT
ATOM      1  N   UNL     1      12.870  22.029  36.039  1.00  0.00    -0.168 NA
ATOM      2  C   UNL     1      13.920  21.937  35.201  1.00  0.00     0.098 A 
ATOM      3  C   UNL     1      15.104  21.596  35.920  1.00  0.00     0.018 A 
ATOM      4  C   UNL     1      14.727  21.609  37.245  1.00  0.00     0.121 A 
ATOM      5  N   UNL     1      13.372  21.824  37.284  1.00  0.00    -0.240 N 
ENDROOT
BRANCH   5   6
ATOM      6  C   UNL     1      12.535  21.783  38.436  1.00  0.00     0.065 A 
ATOM      7  C   UNL     1      11.005  21.754  40.799  1.00  0.00    -0.003 A 
ATOM      8  C   UNL     1      10.971  22.864  39.949  1.00  0.00     0.012 A 
ATOM      9  C   UNL     1      11.799  20.651  40.460  1.00  0.00     0.012 A 
ATOM     10  C   UNL     1      11.729  22.881  38.774  1.00  0.00     0.029 A 
ATOM     11  C   UNL     1      12.550  20.659  39.275  1.00  0.00     0.029 A 
BRANCH   7  12
ATOM     12  C   UNL     1      10.233  21.836  42.065  1.00  0.00     0.071 C 
ATOM     13  O   UNL     1      10.169  22.853  42.733  1.00  0.00    -0.545 OA
ATOM     14  O   UNL     1       9.575  20.702  42.385  1.00  0.00    -0.545 OA
ENDBRANCH   7  12
ENDBRANCH   5   6
BRANCH   2  15
ATOM     15  C   UNL     1      13.761  22.139  33.752  1.00  0.00     0.003 A 
ATOM     16  C   UNL     1      13.735  21.044  32.874  1.00  0.00     0.013 A 
ATOM     17  C   UNL     1      13.623  23.430  33.212  1.00  0.00     0.013 A 
ATOM     18  C   UNL     1      13.597  21.241  31.493  1.00  0.00     0.040 A 
ATOM     19  C   UNL     1      13.499  23.627  31.835  1.00  0.00     0.040 A 
ATOM     20  C   UNL     1      13.486  22.529  30.987  1.00  0.00     0.123 A 
ATOM     21  F   UNL     1      13.358  22.716  29.668  1.00  0.00    -0.207 F 
ENDBRANCH   2  15
BRANCH   3  22
ATOM     22  C   UNL     1      16.457  21.246  35.398  1.00  0.00     0.152 C 
BRANCH  22  23
ATOM     23  N   UNL     1      16.675  19.818  35.174  1.00  0.00    -0.381 N 
ATOM     24  H   UNL     1      17.184  19.499  34.394  1.00  0.00     0.160 HD
BRANCH  23  25
ATOM     25  C   UNL     1      16.137  18.915  36.100  1.00  0.00     0.037 A 
ATOM     26  C   UNL     1      16.833  18.671  37.292  1.00  0.00     0.046 A 
ATOM     27  C   UNL     1      15.002  18.137  35.838  1.00  0.00     0.046 A 
ATOM     28  C   UNL     1      16.354  17.748  38.226  1.00  0.00     0.044 A 
ATOM     29  C   UNL     1      14.530  17.215  36.774  1.00  0.00     0.044 A 
ATOM     30  C   UNL     1      15.195  17.023  37.980  1.00  0.00     0.041 A 
ATOM     31  Cl  UNL     1      17.210  17.506  39.699  1.00  0.00    -0.084 Cl
ATOM     32  Cl  UNL     1      13.111  16.305  36.426  1.00  0.00    -0.084 Cl
ENDBRANCH  23  25
ENDBRANCH  22  23
ENDBRANCH   3  22
TORSDOF 6
ENDMDL
MODEL 15
REMARK VINA RESULT:    -7.224      4.877      7.709
REMARK INTER + INTRA:         -11.305
REMARK INTER:                  -9.059
REMARK INTRA:                  -2.245
REMARK UNBOUND:                -1.547
REMARK SMILES O=C([O-])c1ccc(-n2cc(CNc3cc(Cl)cc(Cl)c3)c(-c3ccc(F)cc3)n2)cc1
REMARK SMILES IDX 29 1 21 2 10 3 9 4 8 5 7 6 4 7 31 8 5 9 30 10 6 11 2 12 1 13
REMARK SMILES IDX 3 14 22 15 28 16 23 17 27 18 24 19 25 20 26 21 11 22 12 23
REMARK SMILES IDX 13 25 14 26 20 27 15 28 18 29 17 30 16 31 19 32
REMARK H PARENT 12 24
ROOT
ATOM      1  N   UNL     1      13.604  23.040  36.390  1.00  0.00    -0.168 NA
ATOM      2  C   UNL     1      14.662  22.991  35.558  1.00  0.00     0.098 A 
ATOM      3  C   UNL     1      15.797  22.442  36.225  1.00  0.00     0.018 A 
ATOM      4  C   UNL     1      15.391  22.279  37.531  1.00  0.00     0.121 A 
ATOM      5  N   UNL     1      14.058  22.600  37.591  1.00  0.00    -0.240 N 
ENDROOT
BRANCH   5   6
ATOM      6  C   UNL     1      13.194  22.451  38.714  1.00  0.00     0.065 A 
ATOM      7  C   UNL     1      11.410  22.039  40.851  1.00  0.00    -0.003 A 
ATOM      8  C   UNL     1      12.652  21.398  40.836  1.00  0.00     0.012 A 
ATOM      9  C   UNL     1      11.063  22.896  39.799  1.00  0.00     0.012 A 
ATOM     10  C   UNL     1      13.541  21.602  39.776  1.00  0.00     0.029 A 
ATOM     11  C   UNL     1      11.957  23.114  38.741  1.00  0.00     0.029 A 
BRANCH   7  12
ATOM     12  C   UNL     1      10.488  21.719  41.971  1.00  0.00     0.071 C 
ATOM     13  O   UNL     1      10.102  20.588  42.204  1.00  0.00    -0.545 OA
ATOM     14  O   UNL     1      10.152  22.783  42.731  1.00  0.00    -0.545 OA
ENDBRANCH   7  12
ENDBRANCH   5   6
BRANCH   2  15
ATOM     15  C   UNL     1      14.555  23.431  34.157  1.00  0.00     0.003 A 
ATOM     16  C   UNL     1      15.419  24.413  33.646  1.00  0.00     0.013 A 
ATOM     17  C   UNL     1      13.593  22.876  33.296  1.00  0.00     0.013 A 
ATOM     18  C   UNL     1      15.307  24.839  32.317  1.00  0.00     0.040 A 
ATOM     19  C   UNL     1      13.472  23.310  31.973  1.00  0.00     0.040 A 
ATOM     20  C   UNL     1      14.332  24.289  31.496  1.00  0.00     0.123 A 
ATOM     21  F   UNL     1      14.222  24.700  30.226  1.00  0.00    -0.207 F 
ENDBRANCH   2  15
BRANCH   3  22
ATOM     22  C   UNL     1      17.128  22.063  35.668  1.00  0.00     0.152 C 
BRANCH  22  23
ATOM     23  N   UNL     1      17.229  20.677  35.217  1.00  0.00    -0.381 N 
ATOM     24  H   UNL     1      17.785  20.024  35.702  1.00  0.00     0.160 HD
BRANCH  23  25
ATOM     25  C   UNL     1      16.516  20.302  34.072  1.00  0.00     0.037 A 
ATOM     26  C   UNL     1      16.819  20.920  32.851  1.00  0.00     0.046 A 
ATOM     27  C   UNL     1      15.417  19.433  34.106  1.00  0.00     0.046 A 
ATOM     28  C   UNL     1      16.104  20.606  31.691  1.00  0.00     0.044 A 
ATOM     29  C   UNL     1      14.707  19.125  32.944  1.00  0.00     0.044 A 
ATOM     30  C   UNL     1      15.052  19.700  31.727  1.00  0.00     0.041 A 
ATOM     31  Cl  UNL     1      16.533  21.352  30.200  1.00  0.00    -0.084 Cl
ATOM     32  Cl  UNL     1      13.385  18.024  33.026  1.00  0.00    -0.084 Cl
ENDBRANCH  23  25
ENDBRANCH  22  23
ENDBRANCH   3  22
TORSDOF 6
ENDMDL
MODEL 16
REMARK VINA RESULT:    -7.186      4.260      6.462
REMARK INTER + INTRA:         -11.254
REMARK INTER:                 -10.353
REMARK INTRA:                  -0.901
REMARK UNBOUND:                -1.547
REMARK SMILES O=C([O-])c1ccc(-n2cc(CNc3cc(Cl)cc(Cl)c3)c(-c3ccc(F)cc3)n2)cc1
REMARK SMILES IDX 29 1 21 2 10 3 9 4 8 5 7 6 4 7 31 8 5 9 30 10 6 11 2 12 1 13
REMARK SMILES IDX 3 14 22 15 28 16 23 17 27 18 24 19 25 20 26 21 11 22 12 23
REMARK SMILES IDX 13 25 14 26 20 27 15 28 18 29 17 30 16 31 19 32
REMARK H PARENT 12 24
ROOT
ATOM      1  N   UNL     1      16.721  19.035  36.012  1.00  0.00    -0.168 NA
ATOM      2  C   UNL     1      16.458  18.871  37.322  1.00  0.00     0.098 A 
ATOM      3  C   UNL     1      15.401  19.737  37.731  1.00  0.00     0.018 A 
ATOM      4  C   UNL     1      15.132  20.510  36.624  1.00  0.00     0.121 A 
ATOM      5  N   UNL     1      15.904  20.035  35.593  1.00  0.00    -0.240 N 
ENDROOT
BRANCH   5   6
ATOM      6  C   UNL     1      15.855  20.447  34.230  1.00  0.00     0.065 A 
ATOM      7  C   UNL     1      15.600  21.239  31.542  1.00  0.00    -0.003 A 
ATOM      8  C   UNL     1      15.623  22.196  32.560  1.00  0.00     0.012 A 
ATOM      9  C   UNL     1      15.715  19.882  31.868  1.00  0.00     0.012 A 
ATOM     10  C   UNL     1      15.751  21.806  33.897  1.00  0.00     0.029 A 
ATOM     11  C   UNL     1      15.858  19.487  33.207  1.00  0.00     0.029 A 
BRANCH   7  12
ATOM     12  C   UNL     1      15.387  21.721  30.153  1.00  0.00     0.071 C 
ATOM     13  O   UNL     1      16.120  21.415  29.229  1.00  0.00    -0.545 OA
ATOM     14  O   UNL     1      14.290  22.492  29.998  1.00  0.00    -0.545 OA
ENDBRANCH   7  12
ENDBRANCH   5   6
BRANCH   2  15
ATOM     15  C   UNL     1      17.188  17.881  38.131  1.00  0.00     0.003 A 
ATOM     16  C   UNL     1      18.592  17.870  38.154  1.00  0.00     0.013 A 
ATOM     17  C   UNL     1      16.501  16.931  38.906  1.00  0.00     0.013 A 
ATOM     18  C   UNL     1      19.284  16.919  38.915  1.00  0.00     0.040 A 
ATOM     19  C   UNL     1      17.191  15.974  39.654  1.00  0.00     0.040 A 
ATOM     20  C   UNL     1      18.579  15.977  39.652  1.00  0.00     0.123 A 
ATOM     21  F   UNL     1      19.241  15.066  40.375  1.00  0.00    -0.207 F 
ENDBRANCH   2  15
BRANCH   3  22
ATOM     22  C   UNL     1      14.681  19.797  39.036  1.00  0.00     0.152 C 
BRANCH  22  23
ATOM     23  N   UNL     1      14.634  21.123  39.649  1.00  0.00    -0.381 N 
ATOM     24  H   UNL     1      15.460  21.581  39.930  1.00  0.00     0.160 HD
BRANCH  23  25
ATOM     25  C   UNL     1      13.382  21.724  39.828  1.00  0.00     0.037 A 
ATOM     26  C   UNL     1      12.812  22.433  38.761  1.00  0.00     0.046 A 
ATOM     27  C   UNL     1      12.725  21.768  41.064  1.00  0.00     0.046 A 
ATOM     28  C   UNL     1      11.583  23.082  38.908  1.00  0.00     0.044 A 
ATOM     29  C   UNL     1      11.498  22.420  41.204  1.00  0.00     0.044 A 
ATOM     30  C   UNL     1      10.913  23.071  40.124  1.00  0.00     0.041 A 
ATOM     31  Cl  UNL     1      10.891  23.906  37.564  1.00  0.00    -0.084 Cl
ATOM     32  Cl  UNL     1      10.708  22.420  42.733  1.00  0.00    -0.084 Cl
ENDBRANCH  23  25
ENDBRANCH  22  23
ENDBRANCH   3  22
TORSDOF 6
ENDMDL
MODEL 17
REMARK VINA RESULT:    -7.112      4.293      6.640
REMARK INTER + INTRA:         -11.153
REMARK INTER:                 -10.284
REMARK INTRA:                  -0.869
REMARK UNBOUND:                -1.547
REMARK SMILES O=C([O-])c1ccc(-n2cc(CNc3cc(Cl)cc(Cl)c3)c(-c3ccc(F)cc3)n2)cc1
REMARK SMILES IDX 29 1 21 2 10 3 9 4 8 5 7 6 4 7 31 8 5 9 30 10 6 11 2 12 1 13
REMARK SMILES IDX 3 14 22 15 28 16 23 17 27 18 24 19 25 20 26 21 11 22 12 23
REMARK SMILES IDX 13 25 14 26 20 27 15 28 18 29 17 30 16 31 19 32
REMARK H PARENT 12 24
ROOT
ATOM      1  N   UNL     1      16.529  18.984  35.988  1.00  0.00    -0.168 NA
ATOM      2  C   UNL     1      16.331  18.831  37.311  1.00  0.00     0.098 A 
ATOM      3  C   UNL     1      15.269  19.672  37.757  1.00  0.00     0.018 A 
ATOM      4  C   UNL     1      14.928  20.422  36.654  1.00  0.00     0.121 A 
ATOM      5  N   UNL     1      15.667  19.956  35.595  1.00  0.00    -0.240 N 
ENDROOT
BRANCH   5   6
ATOM      6  C   UNL     1      15.544  20.347  34.231  1.00  0.00     0.065 A 
ATOM      7  C   UNL     1      15.220  21.249  31.585  1.00  0.00    -0.003 A 
ATOM      8  C   UNL     1      16.378  21.565  32.301  1.00  0.00     0.012 A 
ATOM      9  C   UNL     1      14.225  20.471  32.191  1.00  0.00     0.012 A 
ATOM     10  C   UNL     1      16.543  21.118  33.616  1.00  0.00     0.029 A 
ATOM     11  C   UNL     1      14.393  20.009  33.504  1.00  0.00     0.029 A 
BRANCH   7  12
ATOM     12  C   UNL     1      15.082  21.820  30.220  1.00  0.00     0.071 C 
ATOM     13  O   UNL     1      14.178  22.577  29.911  1.00  0.00    -0.545 OA
ATOM     14  O   UNL     1      16.066  21.463  29.369  1.00  0.00    -0.545 OA
ENDBRANCH   7  12
ENDBRANCH   5   6
BRANCH   2  15
ATOM     15  C   UNL     1      17.125  17.873  38.098  1.00  0.00     0.003 A 
ATOM     16  C   UNL     1      16.496  16.937  38.934  1.00  0.00     0.013 A 
ATOM     17  C   UNL     1      18.529  17.865  38.025  1.00  0.00     0.013 A 
ATOM     18  C   UNL     1      17.255  16.035  39.691  1.00  0.00     0.040 A 
ATOM     19  C   UNL     1      19.287  16.975  38.791  1.00  0.00     0.040 A 
ATOM     20  C   UNL     1      18.641  16.066  39.617  1.00  0.00     0.123 A 
ATOM     21  F   UNL     1      19.366  15.207  40.344  1.00  0.00    -0.207 F 
ENDBRANCH   2  15
BRANCH   3  22
ATOM     22  C   UNL     1      14.607  19.729  39.093  1.00  0.00     0.152 C 
BRANCH  22  23
ATOM     23  N   UNL     1      14.641  21.041  39.737  1.00  0.00    -0.381 N 
ATOM     24  H   UNL     1      15.486  21.417  40.075  1.00  0.00     0.160 HD
BRANCH  23  25
ATOM     25  C   UNL     1      13.438  21.746  39.862  1.00  0.00     0.037 A 
ATOM     26  C   UNL     1      12.729  21.668  41.068  1.00  0.00     0.046 A 
ATOM     27  C   UNL     1      12.834  22.422  38.794  1.00  0.00     0.046 A 
ATOM     28  C   UNL     1      11.503  22.324  41.222  1.00  0.00     0.044 A 
ATOM     29  C   UNL     1      11.610  23.073  38.954  1.00  0.00     0.044 A 
ATOM     30  C   UNL     1      10.941  23.038  40.172  1.00  0.00     0.041 A 
ATOM     31  Cl  UNL     1      10.681  22.244  42.732  1.00  0.00    -0.084 Cl
ATOM     32  Cl  UNL     1      10.921  23.922  37.624  1.00  0.00    -0.084 Cl
ENDBRANCH  23  25
ENDBRANCH  22  23
ENDBRANCH   3  22
TORSDOF 6
ENDMDL
MODEL 18
REMARK VINA RESULT:    -7.096      3.825      5.112
REMARK INTER + INTRA:         -11.132
REMARK INTER:                  -9.846
REMARK INTRA:                  -1.286
REMARK UNBOUND:                -1.547
REMARK SMILES O=C([O-])c1ccc(-n2cc(CNc3cc(Cl)cc(Cl)c3)c(-c3ccc(F)cc3)n2)cc1
REMARK SMILES IDX 29 1 21 2 10 3 9 4 8 5 7 6 4 7 31 8 5 9 30 10 6 11 2 12 1 13
REMARK SMILES IDX 3 14 22 15 28 16 23 17 27 18 24 19 25 20 26 21 11 22 12 23
REMARK SMILES IDX 13 25 14 26 20 27 15 28 18 29 17 30 16 31 19 32
REMARK H PARENT 12 24
ROOT
ATOM      1  N   UNL     1      14.832  21.791  37.934  1.00  0.00    -0.168 NA
ATOM      2  C   UNL     1      14.581  22.790  37.067  1.00  0.00     0.098 A 
ATOM      3  C   UNL     1      15.437  22.691  35.930  1.00  0.00     0.018 A 
ATOM      4  C   UNL     1      16.292  21.652  36.224  1.00  0.00     0.121 A 
ATOM      5  N   UNL     1      15.876  21.100  37.409  1.00  0.00    -0.240 N 
ENDROOT
BRANCH   5   6
ATOM      6  C   UNL     1      16.384  19.920  38.026  1.00  0.00     0.065 A 
ATOM      7  C   UNL     1      17.322  17.505  39.125  1.00  0.00    -0.003 A 
ATOM      8  C   UNL     1      18.145  18.267  38.290  1.00  0.00     0.012 A 
ATOM      9  C   UNL     1      16.030  17.957  39.419  1.00  0.00     0.012 A 
ATOM     10  C   UNL     1      17.682  19.468  37.743  1.00  0.00     0.029 A 
ATOM     11  C   UNL     1      15.567  19.168  38.883  1.00  0.00     0.029 A 
BRANCH   7  12
ATOM     12  C   UNL     1      17.854  16.205  39.609  1.00  0.00     0.071 C 
ATOM     13  O   UNL     1      18.478  15.440  38.895  1.00  0.00    -0.545 OA
ATOM     14  O   UNL     1      17.624  15.967  40.918  1.00  0.00    -0.545 OA
ENDBRANCH   7  12
ENDBRANCH   5   6
BRANCH   2  15
ATOM     15  C   UNL     1      13.522  23.779  37.325  1.00  0.00     0.003 A 
ATOM     16  C   UNL     1      13.844  25.110  37.632  1.00  0.00     0.013 A 
ATOM     17  C   UNL     1      12.164  23.419  37.263  1.00  0.00     0.013 A 
ATOM     18  C   UNL     1      12.834  26.047  37.890  1.00  0.00     0.040 A 
ATOM     19  C   UNL     1      11.157  24.349  37.534  1.00  0.00     0.040 A 
ATOM     20  C   UNL     1      11.503  25.656  37.844  1.00  0.00     0.123 A 
ATOM     21  F   UNL     1      10.538  26.550  38.095  1.00  0.00    -0.207 F 
ENDBRANCH   2  15
BRANCH   3  22
ATOM     22  C   UNL     1      15.418  23.478  34.663  1.00  0.00     0.152 C 
BRANCH  22  23
ATOM     23  N   UNL     1      14.511  22.966  33.638  1.00  0.00    -0.381 N 
ATOM     24  H   UNL     1      13.703  23.466  33.380  1.00  0.00     0.160 HD
BRANCH  23  25
ATOM     25  C   UNL     1      14.822  21.741  33.034  1.00  0.00     0.037 A 
ATOM     26  C   UNL     1      13.899  20.690  33.120  1.00  0.00     0.046 A 
ATOM     27  C   UNL     1      16.070  21.467  32.461  1.00  0.00     0.046 A 
ATOM     28  C   UNL     1      14.186  19.438  32.567  1.00  0.00     0.044 A 
ATOM     29  C   UNL     1      16.350  20.214  31.912  1.00  0.00     0.044 A 
ATOM     30  C   UNL     1      15.406  19.194  31.950  1.00  0.00     0.041 A 
ATOM     31  Cl  UNL     1      13.011  18.182  32.652  1.00  0.00    -0.084 Cl
ATOM     32  Cl  UNL     1      17.885  19.931  31.185  1.00  0.00    -0.084 Cl
ENDBRANCH  23  25
ENDBRANCH  22  23
ENDBRANCH   3  22
TORSDOF 6
ENDMDL
MODEL 19
REMARK VINA RESULT:    -7.045      5.161      8.459
REMARK INTER + INTRA:         -11.062
REMARK INTER:                  -9.705
REMARK INTRA:                  -1.358
REMARK UNBOUND:                -1.547
REMARK SMILES O=C([O-])c1ccc(-n2cc(CNc3cc(Cl)cc(Cl)c3)c(-c3ccc(F)cc3)n2)cc1
REMARK SMILES IDX 29 1 21 2 10 3 9 4 8 5 7 6 4 7 31 8 5 9 30 10 6 11 2 12 1 13
REMARK SMILES IDX 3 14 22 15 28 16 23 17 27 18 24 19 25 20 26 21 11 22 12 23
REMARK SMILES IDX 13 25 14 26 20 27 15 28 18 29 17 30 16 31 19 32
REMARK H PARENT 12 24
ROOT
ATOM      1  N   UNL     1      14.754  20.263  37.504  1.00  0.00    -0.168 NA
ATOM      2  C   UNL     1      15.442  19.378  36.757  1.00  0.00     0.098 A 
ATOM      3  C   UNL     1      15.120  19.535  35.376  1.00  0.00     0.018 A 
ATOM      4  C   UNL     1      14.116  20.477  35.354  1.00  0.00     0.121 A 
ATOM      5  N   UNL     1      13.950  20.932  36.638  1.00  0.00    -0.240 N 
ENDROOT
BRANCH   5   6
ATOM      6  C   UNL     1      13.113  22.004  37.062  1.00  0.00     0.065 A 
ATOM      7  C   UNL     1      11.333  24.027  37.874  1.00  0.00    -0.003 A 
ATOM      8  C   UNL     1      11.929  23.189  38.822  1.00  0.00     0.012 A 
ATOM      9  C   UNL     1      11.636  23.858  36.517  1.00  0.00     0.012 A 
ATOM     10  C   UNL     1      12.815  22.184  38.422  1.00  0.00     0.029 A 
ATOM     11  C   UNL     1      12.534  22.860  36.113  1.00  0.00     0.029 A 
BRANCH   7  12
ATOM     12  C   UNL     1      10.347  25.023  38.366  1.00  0.00     0.071 C 
ATOM     13  O   UNL     1      10.378  26.197  38.041  1.00  0.00    -0.545 OA
ATOM     14  O   UNL     1       9.391  24.506  39.167  1.00  0.00    -0.545 OA
ENDBRANCH   7  12
ENDBRANCH   5   6
BRANCH   2  15
ATOM     15  C   UNL     1      16.399  18.443  37.369  1.00  0.00     0.003 A 
ATOM     16  C   UNL     1      15.951  17.285  38.025  1.00  0.00     0.013 A 
ATOM     17  C   UNL     1      17.784  18.679  37.304  1.00  0.00     0.013 A 
ATOM     18  C   UNL     1      16.865  16.403  38.617  1.00  0.00     0.040 A 
ATOM     19  C   UNL     1      18.694  17.807  37.906  1.00  0.00     0.040 A 
ATOM     20  C   UNL     1      18.225  16.675  38.557  1.00  0.00     0.123 A 
ATOM     21  F   UNL     1      19.097  15.833  39.126  1.00  0.00    -0.207 F 
ENDBRANCH   2  15
BRANCH   3  22
ATOM     22  C   UNL     1      15.739  18.886  34.184  1.00  0.00     0.152 C 
BRANCH  22  23
ATOM     23  N   UNL     1      14.796  18.195  33.306  1.00  0.00    -0.381 N 
ATOM     24  H   UNL     1      14.707  18.448  32.358  1.00  0.00     0.160 HD
BRANCH  23  25
ATOM     25  C   UNL     1      14.021  17.163  33.851  1.00  0.00     0.037 A 
ATOM     26  C   UNL     1      14.587  16.336  34.830  1.00  0.00     0.046 A 
ATOM     27  C   UNL     1      12.749  16.828  33.371  1.00  0.00     0.046 A 
ATOM     28  C   UNL     1      13.864  15.269  35.372  1.00  0.00     0.044 A 
ATOM     29  C   UNL     1      12.033  15.760  33.915  1.00  0.00     0.044 A 
ATOM     30  C   UNL     1      12.580  14.980  34.927  1.00  0.00     0.041 A 
ATOM     31  Cl  UNL     1      14.573  14.300  36.606  1.00  0.00    -0.084 Cl
ATOM     32  Cl  UNL     1      10.457  15.405  33.319  1.00  0.00    -0.084 Cl
ENDBRANCH  23  25
ENDBRANCH  22  23
ENDBRANCH   3  22
TORSDOF 6
ENDMDL
MODEL 20
REMARK VINA RESULT:    -5.694      4.957      8.203
REMARK INTER + INTRA:          -9.238
REMARK INTER:                  -8.054
REMARK INTRA:                  -1.183
REMARK UNBOUND:                -1.547
REMARK SMILES O=C([O-])c1ccc(-n2cc(CNc3cc(Cl)cc(Cl)c3)c(-c3ccc(F)cc3)n2)cc1
REMARK SMILES IDX 29 1 21 2 10 3 9 4 8 5 7 6 4 7 31 8 5 9 30 10 6 11 2 12 1 13
REMARK SMILES IDX 3 14 22 15 28 16 23 17 27 18 24 19 25 20 26 21 11 22 12 23
REMARK SMILES IDX 13 25 14 26 20 27 15 28 18 29 17 30 16 31 19 32
REMARK H PARENT 12 24
ROOT
ATOM      1  N   UNL     1      15.293  19.769  37.958  1.00  0.00    -0.168 NA
ATOM      2  C   UNL     1      15.242  18.427  37.864  1.00  0.00     0.098 A 
ATOM      3  C   UNL     1      14.014  18.016  37.267  1.00  0.00     0.018 A 
ATOM      4  C   UNL     1      13.287  19.177  37.122  1.00  0.00     0.121 A 
ATOM      5  N   UNL     1      14.097  20.219  37.500  1.00  0.00    -0.240 N 
ENDROOT
BRANCH   5   6
ATOM      6  C   UNL     1      13.808  21.609  37.387  1.00  0.00     0.065 A 
ATOM      7  C   UNL     1      13.237  24.364  37.325  1.00  0.00    -0.003 A 
ATOM      8  C   UNL     1      14.556  23.914  37.212  1.00  0.00     0.012 A 
ATOM      9  C   UNL     1      12.199  23.433  37.459  1.00  0.00     0.012 A 
ATOM     10  C   UNL     1      14.842  22.546  37.241  1.00  0.00     0.029 A 
ATOM     11  C   UNL     1      12.481  22.059  37.475  1.00  0.00     0.029 A 
BRANCH   7  12
ATOM     12  C   UNL     1      13.015  25.833  37.359  1.00  0.00     0.071 C 
ATOM     13  O   UNL     1      13.500  26.553  38.214  1.00  0.00    -0.545 OA
ATOM     14  O   UNL     1      12.267  26.303  36.338  1.00  0.00    -0.545 OA
ENDBRANCH   7  12
ENDBRANCH   5   6
BRANCH   2  15
ATOM     15  C   UNL     1      16.364  17.586  38.309  1.00  0.00     0.003 A 
ATOM     16  C   UNL     1      17.321  17.123  37.391  1.00  0.00     0.013 A 
ATOM     17  C   UNL     1      16.513  17.232  39.661  1.00  0.00     0.013 A 
ATOM     18  C   UNL     1      18.382  16.312  37.815  1.00  0.00     0.040 A 
ATOM     19  C   UNL     1      17.563  16.412  40.083  1.00  0.00     0.040 A 
ATOM     20  C   UNL     1      18.489  15.960  39.154  1.00  0.00     0.123 A 
ATOM     21  F   UNL     1      19.500  15.181  39.558  1.00  0.00    -0.207 F 
ENDBRANCH   2  15
BRANCH   3  22
ATOM     22  C   UNL     1      13.585  16.655  36.832  1.00  0.00     0.152 C 
BRANCH  22  23
ATOM     23  N   UNL     1      14.053  16.262  35.504  1.00  0.00    -0.381 N 
ATOM     24  H   UNL     1      14.929  15.827  35.383  1.00  0.00     0.160 HD
BRANCH  23  25
ATOM     25  C   UNL     1      13.223  16.523  34.407  1.00  0.00     0.037 A 
ATOM     26  C   UNL     1      13.374  17.732  33.715  1.00  0.00     0.046 A 
ATOM     27  C   UNL     1      12.153  15.694  34.044  1.00  0.00     0.046 A 
ATOM     28  C   UNL     1      12.539  18.051  32.640  1.00  0.00     0.044 A 
ATOM     29  C   UNL     1      11.323  16.020  32.970  1.00  0.00     0.044 A 
ATOM     30  C   UNL     1      11.517  17.195  32.253  1.00  0.00     0.041 A 
ATOM     31  Cl  UNL     1      12.782  19.525  31.784  1.00  0.00    -0.084 Cl
ATOM     32  Cl  UNL     1      10.041  14.955  32.537  1.00  0.00    -0.084 Cl
ENDBRANCH  23  25
ENDBRANCH  22  23
ENDBRANCH   3  22
TORSDOF 6
ENDMDL
