REMARK 999 siam chowdhury
REMARK 999 Computational and Medicinal Chemistry
REMARK 999 [Dr. Alam's Research Team] www.alamresearch.org
REMARK 999 Arkansas State University
REMARK 999 25sa23 ligand PDBQT (pH 7.4, MMFF94, Meeko)
REMARK 999 Created: 2026-09-27 01:58:58
REMARK SMILES O=C([O-])c1ccc(-n2cc(CNc3cc(F)cc(C(F)(F)F)c3)c(-c3ccc(F)cc3)n2)cc1
REMARK SMILES IDX 11 1 10 2 8 3 32 4 9 5 24 6 7 7 4 8 5 9 34 10 6 11 33 12
REMARK SMILES IDX 2 13 1 14 3 15 25 16 31 17 26 18 30 19 27 20 28 21 29 22
REMARK SMILES IDX 12 23 13 25 23 26 14 27 18 28 15 29 17 30 16 31 19 32 20 33
REMARK SMILES IDX 21 34 22 35
REMARK H PARENT 12 24
ROOT
ATOM      1  C   UNL     1       5.507  -1.105   8.282  1.00  0.00     0.152 C 
ENDROOT
BRANCH   1   2
ATOM      2  C   UNL     1       5.383  -1.605   6.886  1.00  0.00     0.018 A 
ATOM      3  N   UNL     1       4.815  -1.738   4.751  1.00  0.00    -0.240 N 
ATOM      4  N   UNL     1       5.441  -2.909   5.019  1.00  0.00    -0.168 NA
ATOM      5  C   UNL     1       4.778  -0.927   5.855  1.00  0.00     0.121 A 
ATOM      6  C   UNL     1       5.834  -2.826   6.304  1.00  0.00     0.098 A 
BRANCH   3   7
ATOM      7  C   UNL     1       4.243  -1.448   3.480  1.00  0.00     0.065 A 
ATOM      8  C   UNL     1       2.968  -0.908   1.040  1.00  0.00    -0.003 A 
ATOM      9  C   UNL     1       3.603  -2.140   1.246  1.00  0.00     0.012 A 
ATOM     10  C   UNL     1       2.976   0.057   2.049  1.00  0.00     0.012 A 
ATOM     11  C   UNL     1       4.247  -2.410   2.460  1.00  0.00     0.029 A 
ATOM     12  C   UNL     1       3.623  -0.207   3.255  1.00  0.00     0.029 A 
BRANCH   8  13
ATOM     13  C   UNL     1       2.238  -0.673  -0.229  1.00  0.00     0.071 C 
ATOM     14  O   UNL     1       1.679  -1.567  -0.843  1.00  0.00    -0.545 OA
ATOM     15  O   UNL     1       2.259   0.610  -0.642  1.00  0.00    -0.545 OA
ENDBRANCH   8  13
ENDBRANCH   3   7
BRANCH   6  16
ATOM     16  C   UNL     1       6.614  -3.901   6.938  1.00  0.00     0.003 A 
ATOM     17  C   UNL     1       6.437  -5.239   6.556  1.00  0.00     0.013 A 
ATOM     18  C   UNL     1       7.568  -3.612   7.930  1.00  0.00     0.013 A 
ATOM     19  C   UNL     1       7.185  -6.258   7.159  1.00  0.00     0.040 A 
ATOM     20  C   UNL     1       8.304  -4.628   8.543  1.00  0.00     0.040 A 
ATOM     21  C   UNL     1       8.108  -5.942   8.149  1.00  0.00     0.123 A 
ATOM     22  F   UNL     1       8.825  -6.916   8.724  1.00  0.00    -0.207 F 
ENDBRANCH   6  16
ENDBRANCH   1   2
BRANCH   1  23
ATOM     23  N   UNL     1       6.706  -0.301   8.504  1.00  0.00    -0.381 N 
ATOM     24  H   UNL     1       7.329  -0.120   7.764  1.00  0.00     0.160 HD
BRANCH  23  25
ATOM     25  C   UNL     1       6.958   0.208   9.778  1.00  0.00     0.038 A 
ATOM     26  C   UNL     1       7.818   1.311   9.903  1.00  0.00     0.039 A 
ATOM     27  C   UNL     1       6.515  -0.408  10.951  1.00  0.00     0.065 A 
ATOM     28  C   UNL     1       8.168   1.839  11.160  1.00  0.00     0.060 A 
ATOM     29  C   UNL     1       6.863   0.101  12.194  1.00  0.00     0.125 A 
ATOM     30  C   UNL     1       7.673   1.222  12.312  1.00  0.00     0.052 A 
ATOM     31  F   UNL     1       6.413  -0.504  13.299  1.00  0.00    -0.207 F 
BRANCH  28  32
ATOM     32  C   UNL     1       9.062   3.048  11.249  1.00  0.00     0.416 C 
ATOM     33  F   UNL     1       9.315   3.445  12.527  1.00  0.00    -0.166 F 
ATOM     34  F   UNL     1      10.277   2.844  10.672  1.00  0.00    -0.166 F 
ATOM     35  F   UNL     1       8.526   4.132  10.622  1.00  0.00    -0.166 F 
ENDBRANCH  28  32
ENDBRANCH  23  25
ENDBRANCH   1  23
TORSDOF 7
