REMARK 999 siam chowdhury
REMARK 999 Computational and Medicinal Chemistry
REMARK 999 [Dr. Alam's Research Team] www.alamresearch.org
REMARK 999 Arkansas State University
REMARK 999 9sa23 Vina docking output (7L00 FabK)
REMARK 999 Created: 2026-09-27 01:53:19
MODEL 1
REMARK VINA RESULT:    -7.157      0.000      0.000
REMARK INTER + INTRA:         -11.921
REMARK INTER:                  -9.668
REMARK INTRA:                  -2.254
REMARK UNBOUND:                -2.254
REMARK SMILES O=C([O-])c1ccc(-n2cc(CNc3cccc(Br)c3)c(-c3ccc(F)cc3)n2)cc1
REMARK SMILES IDX 28 1 20 2 10 3 9 4 8 5 7 6 4 7 5 8 30 9 6 10 29 11 2 12 1 13
REMARK SMILES IDX 3 14 21 15 27 16 22 17 26 18 23 19 24 20 25 21 11 22 12 23
REMARK SMILES IDX 13 25 19 26 14 27 17 28 15 29 16 30 18 31
REMARK H PARENT 12 24
ROOT
ATOM      1  N   UNL     1      11.993  15.669  34.768  1.00  0.00    -0.168 NA
ATOM      2  C   UNL     1      13.146  16.360  34.852  1.00  0.00     0.098 A 
ATOM      3  C   UNL     1      13.322  17.179  33.697  1.00  0.00     0.018 A 
ATOM      4  C   UNL     1      12.275  16.845  32.868  1.00  0.00     0.121 A 
ATOM      5  N   UNL     1      11.472  15.969  33.549  1.00  0.00    -0.240 N 
ENDROOT
BRANCH   5   6
ATOM      6  C   UNL     1      10.214  15.459  33.119  1.00  0.00     0.065 A 
ATOM      7  C   UNL     1       7.660  14.608  32.290  1.00  0.00    -0.003 A 
ATOM      8  C   UNL     1       8.039  14.497  33.635  1.00  0.00     0.012 A 
ATOM      9  C   UNL     1       8.565  15.130  31.362  1.00  0.00     0.012 A 
ATOM     10  C   UNL     1       9.316  14.908  34.045  1.00  0.00     0.029 A 
ATOM     11  C   UNL     1       9.833  15.552  31.770  1.00  0.00     0.029 A 
BRANCH   7  12
ATOM     12  C   UNL     1       6.303  14.257  31.792  1.00  0.00     0.071 C 
ATOM     13  O   UNL     1       6.064  14.067  30.613  1.00  0.00    -0.545 OA
ATOM     14  O   UNL     1       5.372  14.130  32.760  1.00  0.00    -0.545 OA
ENDBRANCH   7  12
ENDBRANCH   5   6
BRANCH   2  15
ATOM     15  C   UNL     1      14.029  16.242  36.025  1.00  0.00     0.003 A 
ATOM     16  C   UNL     1      15.262  15.576  35.937  1.00  0.00     0.013 A 
ATOM     17  C   UNL     1      13.667  16.808  37.260  1.00  0.00     0.013 A 
ATOM     18  C   UNL     1      16.096  15.468  37.057  1.00  0.00     0.040 A 
ATOM     19  C   UNL     1      14.492  16.689  38.382  1.00  0.00     0.040 A 
ATOM     20  C   UNL     1      15.701  16.023  38.269  1.00  0.00     0.123 A 
ATOM     21  F   UNL     1      16.500  15.920  39.339  1.00  0.00    -0.207 F 
ENDBRANCH   2  15
BRANCH   3  22
ATOM     22  C   UNL     1      14.367  18.203  33.412  1.00  0.00     0.152 C 
BRANCH  22  23
ATOM     23  N   UNL     1      14.146  19.489  34.066  1.00  0.00    -0.381 N 
ATOM     24  H   UNL     1      13.652  20.208  33.609  1.00  0.00     0.160 HD
BRANCH  23  25
ATOM     25  C   UNL     1      14.650  19.678  35.358  1.00  0.00     0.035 A 
ATOM     26  C   UNL     1      13.863  20.361  36.295  1.00  0.00     0.041 A 
ATOM     27  C   UNL     1      15.962  19.350  35.724  1.00  0.00     0.026 A 
ATOM     28  C   UNL     1      14.345  20.621  37.579  1.00  0.00     0.020 A 
ATOM     29  C   UNL     1      16.447  19.612  37.009  1.00  0.00     0.003 A 
ATOM     30  C   UNL     1      15.632  20.238  37.945  1.00  0.00     0.016 A 
ATOM     31  Br  UNL     1      13.242  21.506  38.835  1.00  0.00    -0.051 Br
ENDBRANCH  23  25
ENDBRANCH  22  23
ENDBRANCH   3  22
TORSDOF 6
ENDMDL
MODEL 2
REMARK VINA RESULT:    -7.118      2.025      3.473
REMARK INTER + INTRA:         -11.868
REMARK INTER:                 -10.550
REMARK INTRA:                  -1.319
REMARK UNBOUND:                -2.254
REMARK SMILES O=C([O-])c1ccc(-n2cc(CNc3cccc(Br)c3)c(-c3ccc(F)cc3)n2)cc1
REMARK SMILES IDX 28 1 20 2 10 3 9 4 8 5 7 6 4 7 5 8 30 9 6 10 29 11 2 12 1 13
REMARK SMILES IDX 3 14 21 15 27 16 22 17 26 18 23 19 24 20 25 21 11 22 12 23
REMARK SMILES IDX 13 25 19 26 14 27 17 28 15 29 16 30 18 31
REMARK H PARENT 12 24
ROOT
ATOM      1  N   UNL     1      11.963  16.887  33.121  1.00  0.00    -0.168 NA
ATOM      2  C   UNL     1      13.160  16.943  33.735  1.00  0.00     0.098 A 
ATOM      3  C   UNL     1      13.408  15.736  34.454  1.00  0.00     0.018 A 
ATOM      4  C   UNL     1      12.244  15.012  34.336  1.00  0.00     0.121 A 
ATOM      5  N   UNL     1      11.410  15.705  33.500  1.00  0.00    -0.240 N 
ENDROOT
BRANCH   5   6
ATOM      6  C   UNL     1      10.149  15.267  33.003  1.00  0.00     0.065 A 
ATOM      7  C   UNL     1       7.602  14.567  32.023  1.00  0.00    -0.003 A 
ATOM      8  C   UNL     1       7.856  14.554  33.402  1.00  0.00     0.012 A 
ATOM      9  C   UNL     1       8.627  14.916  31.139  1.00  0.00     0.012 A 
ATOM     10  C   UNL     1       9.129  14.889  33.889  1.00  0.00     0.029 A 
ATOM     11  C   UNL     1       9.891  15.263  31.623  1.00  0.00     0.029 A 
BRANCH   7  12
ATOM     12  C   UNL     1       6.264  14.291  31.437  1.00  0.00     0.071 C 
ATOM     13  O   UNL     1       5.254  14.214  32.114  1.00  0.00    -0.545 OA
ATOM     14  O   UNL     1       6.258  14.174  30.094  1.00  0.00    -0.545 OA
ENDBRANCH   7  12
ENDBRANCH   5   6
BRANCH   2  15
ATOM     15  C   UNL     1      14.036  18.120  33.605  1.00  0.00     0.003 A 
ATOM     16  C   UNL     1      14.664  18.423  32.386  1.00  0.00     0.013 A 
ATOM     17  C   UNL     1      14.254  18.982  34.695  1.00  0.00     0.013 A 
ATOM     18  C   UNL     1      15.495  19.543  32.270  1.00  0.00     0.040 A 
ATOM     19  C   UNL     1      15.094  20.093  34.585  1.00  0.00     0.040 A 
ATOM     20  C   UNL     1      15.705  20.365  33.373  1.00  0.00     0.123 A 
ATOM     21  F   UNL     1      16.499  21.438  33.260  1.00  0.00    -0.207 F 
ENDBRANCH   2  15
BRANCH   3  22
ATOM     22  C   UNL     1      14.642  15.294  35.166  1.00  0.00     0.152 C 
BRANCH  22  23
ATOM     23  N   UNL     1      14.450  15.010  36.585  1.00  0.00    -0.381 N 
ATOM     24  H   UNL     1      14.017  14.174  36.876  1.00  0.00     0.160 HD
BRANCH  23  25
ATOM     25  C   UNL     1      14.894  15.950  37.522  1.00  0.00     0.035 A 
ATOM     26  C   UNL     1      14.238  17.186  37.599  1.00  0.00     0.041 A 
ATOM     27  C   UNL     1      16.054  15.777  38.290  1.00  0.00     0.026 A 
ATOM     28  C   UNL     1      14.679  18.175  38.481  1.00  0.00     0.020 A 
ATOM     29  C   UNL     1      16.497  16.768  39.171  1.00  0.00     0.003 A 
ATOM     30  C   UNL     1      15.801  17.966  39.277  1.00  0.00     0.016 A 
ATOM     31  Br  UNL     1      13.747  19.816  38.592  1.00  0.00    -0.051 Br
ENDBRANCH  23  25
ENDBRANCH  22  23
ENDBRANCH   3  22
TORSDOF 6
ENDMDL
MODEL 3
REMARK VINA RESULT:    -6.555      1.597      2.156
REMARK INTER + INTRA:         -11.107
REMARK INTER:                 -10.007
REMARK INTRA:                  -1.100
REMARK UNBOUND:                -2.254
REMARK SMILES O=C([O-])c1ccc(-n2cc(CNc3cccc(Br)c3)c(-c3ccc(F)cc3)n2)cc1
REMARK SMILES IDX 28 1 20 2 10 3 9 4 8 5 7 6 4 7 5 8 30 9 6 10 29 11 2 12 1 13
REMARK SMILES IDX 3 14 21 15 27 16 22 17 26 18 23 19 24 20 25 21 11 22 12 23
REMARK SMILES IDX 13 25 19 26 14 27 17 28 15 29 16 30 18 31
REMARK H PARENT 12 24
ROOT
ATOM      1  N   UNL     1      11.905  15.547  34.553  1.00  0.00    -0.168 NA
ATOM      2  C   UNL     1      13.027  16.279  34.679  1.00  0.00     0.098 A 
ATOM      3  C   UNL     1      13.141  17.206  33.599  1.00  0.00     0.018 A 
ATOM      4  C   UNL     1      12.092  16.899  32.762  1.00  0.00     0.121 A 
ATOM      5  N   UNL     1      11.344  15.930  33.376  1.00  0.00    -0.240 N 
ENDROOT
BRANCH   5   6
ATOM      6  C   UNL     1      10.101  15.403  32.924  1.00  0.00     0.065 A 
ATOM      7  C   UNL     1       7.578  14.521  32.030  1.00  0.00    -0.003 A 
ATOM      8  C   UNL     1       7.870  14.554  33.402  1.00  0.00     0.012 A 
ATOM      9  C   UNL     1       8.555  14.915  31.111  1.00  0.00     0.012 A 
ATOM     10  C   UNL     1       9.131  14.980  33.845  1.00  0.00     0.029 A 
ATOM     11  C   UNL     1       9.806  15.351  31.552  1.00  0.00     0.029 A 
BRANCH   7  12
ATOM     12  C   UNL     1       6.245  14.148  31.488  1.00  0.00     0.071 C 
ATOM     13  O   UNL     1       5.288  13.910  32.203  1.00  0.00    -0.545 OA
ATOM     14  O   UNL     1       6.177  14.134  30.142  1.00  0.00    -0.545 OA
ENDBRANCH   7  12
ENDBRANCH   5   6
BRANCH   2  15
ATOM     15  C   UNL     1      13.941  16.097  35.820  1.00  0.00     0.003 A 
ATOM     16  C   UNL     1      15.078  15.281  35.713  1.00  0.00     0.013 A 
ATOM     17  C   UNL     1      13.707  16.752  37.042  1.00  0.00     0.013 A 
ATOM     18  C   UNL     1      15.941  15.113  36.802  1.00  0.00     0.040 A 
ATOM     19  C   UNL     1      14.559  16.574  38.135  1.00  0.00     0.040 A 
ATOM     20  C   UNL     1      15.671  15.759  38.004  1.00  0.00     0.123 A 
ATOM     21  F   UNL     1      16.499  15.599  39.045  1.00  0.00    -0.207 F 
ENDBRANCH   2  15
BRANCH   3  22
ATOM     22  C   UNL     1      14.133  18.298  33.389  1.00  0.00     0.152 C 
BRANCH  22  23
ATOM     23  N   UNL     1      13.673  19.370  32.512  1.00  0.00    -0.381 N 
ATOM     24  H   UNL     1      13.385  19.178  31.590  1.00  0.00     0.160 HD
BRANCH  23  25
ATOM     25  C   UNL     1      13.650  20.679  33.009  1.00  0.00     0.035 A 
ATOM     26  C   UNL     1      14.126  20.915  34.306  1.00  0.00     0.041 A 
ATOM     27  C   UNL     1      13.041  21.744  32.333  1.00  0.00     0.026 A 
ATOM     28  C   UNL     1      14.074  22.194  34.864  1.00  0.00     0.020 A 
ATOM     29  C   UNL     1      12.985  23.024  32.893  1.00  0.00     0.003 A 
ATOM     30  C   UNL     1      13.514  23.254  34.157  1.00  0.00     0.016 A 
ATOM     31  Br  UNL     1      14.763  22.489  36.600  1.00  0.00    -0.051 Br
ENDBRANCH  23  25
ENDBRANCH  22  23
ENDBRANCH   3  22
TORSDOF 6
ENDMDL
MODEL 4
REMARK VINA RESULT:    -6.465      0.920      1.746
REMARK INTER + INTRA:         -10.986
REMARK INTER:                  -9.925
REMARK INTRA:                  -1.061
REMARK UNBOUND:                -2.254
REMARK SMILES O=C([O-])c1ccc(-n2cc(CNc3cccc(Br)c3)c(-c3ccc(F)cc3)n2)cc1
REMARK SMILES IDX 28 1 20 2 10 3 9 4 8 5 7 6 4 7 5 8 30 9 6 10 29 11 2 12 1 13
REMARK SMILES IDX 3 14 21 15 27 16 22 17 26 18 23 19 24 20 25 21 11 22 12 23
REMARK SMILES IDX 13 25 19 26 14 27 17 28 15 29 16 30 18 31
REMARK H PARENT 12 24
ROOT
ATOM      1  N   UNL     1      11.913  15.567  34.573  1.00  0.00    -0.168 NA
ATOM      2  C   UNL     1      13.048  16.280  34.699  1.00  0.00     0.098 A 
ATOM      3  C   UNL     1      13.188  17.191  33.610  1.00  0.00     0.018 A 
ATOM      4  C   UNL     1      12.140  16.896  32.768  1.00  0.00     0.121 A 
ATOM      5  N   UNL     1      11.369  15.948  33.387  1.00  0.00    -0.240 N 
ENDROOT
BRANCH   5   6
ATOM      6  C   UNL     1      10.119  15.439  32.931  1.00  0.00     0.065 A 
ATOM      7  C   UNL     1       7.586  14.595  32.033  1.00  0.00    -0.003 A 
ATOM      8  C   UNL     1       7.883  14.600  33.403  1.00  0.00     0.012 A 
ATOM      9  C   UNL     1       8.562  14.997  31.117  1.00  0.00     0.012 A 
ATOM     10  C   UNL     1       9.150  15.008  33.849  1.00  0.00     0.029 A 
ATOM     11  C   UNL     1       9.819  15.416  31.560  1.00  0.00     0.029 A 
BRANCH   7  12
ATOM     12  C   UNL     1       6.247  14.243  31.490  1.00  0.00     0.071 C 
ATOM     13  O   UNL     1       5.328  13.872  32.198  1.00  0.00    -0.545 OA
ATOM     14  O   UNL     1       6.128  14.406  30.157  1.00  0.00    -0.545 OA
ENDBRANCH   7  12
ENDBRANCH   5   6
BRANCH   2  15
ATOM     15  C   UNL     1      13.949  16.094  35.850  1.00  0.00     0.003 A 
ATOM     16  C   UNL     1      13.616  16.598  37.117  1.00  0.00     0.013 A 
ATOM     17  C   UNL     1      15.158  15.390  35.713  1.00  0.00     0.013 A 
ATOM     18  C   UNL     1      14.477  16.417  38.206  1.00  0.00     0.040 A 
ATOM     19  C   UNL     1      16.026  15.221  36.795  1.00  0.00     0.040 A 
ATOM     20  C   UNL     1      15.676  15.733  38.033  1.00  0.00     0.123 A 
ATOM     21  F   UNL     1      16.497  15.559  39.077  1.00  0.00    -0.207 F 
ENDBRANCH   2  15
BRANCH   3  22
ATOM     22  C   UNL     1      14.203  18.263  33.396  1.00  0.00     0.152 C 
BRANCH  22  23
ATOM     23  N   UNL     1      14.693  18.883  34.623  1.00  0.00    -0.381 N 
ATOM     24  H   UNL     1      15.321  18.405  35.212  1.00  0.00     0.160 HD
BRANCH  23  25
ATOM     25  C   UNL     1      14.253  20.172  34.944  1.00  0.00     0.035 A 
ATOM     26  C   UNL     1      13.964  20.471  36.282  1.00  0.00     0.041 A 
ATOM     27  C   UNL     1      13.944  21.139  33.978  1.00  0.00     0.026 A 
ATOM     28  C   UNL     1      13.471  21.726  36.644  1.00  0.00     0.020 A 
ATOM     29  C   UNL     1      13.448  22.395  34.339  1.00  0.00     0.003 A 
ATOM     30  C   UNL     1      13.221  22.695  35.677  1.00  0.00     0.016 A 
ATOM     31  Br  UNL     1      13.131  22.113  38.463  1.00  0.00    -0.051 Br
ENDBRANCH  23  25
ENDBRANCH  22  23
ENDBRANCH   3  22
TORSDOF 6
ENDMDL
MODEL 5
REMARK VINA RESULT:    -6.320      7.709     11.678
REMARK INTER + INTRA:         -10.790
REMARK INTER:                  -9.398
REMARK INTRA:                  -1.392
REMARK UNBOUND:                -2.254
REMARK SMILES O=C([O-])c1ccc(-n2cc(CNc3cccc(Br)c3)c(-c3ccc(F)cc3)n2)cc1
REMARK SMILES IDX 28 1 20 2 10 3 9 4 8 5 7 6 4 7 5 8 30 9 6 10 29 11 2 12 1 13
REMARK SMILES IDX 3 14 21 15 27 16 22 17 26 18 23 19 24 20 25 21 11 22 12 23
REMARK SMILES IDX 13 25 19 26 14 27 17 28 15 29 16 30 18 31
REMARK H PARENT 12 24
ROOT
ATOM      1  N   UNL     1       9.730  20.553  29.059  1.00  0.00    -0.168 NA
ATOM      2  C   UNL     1       8.422  20.536  28.743  1.00  0.00     0.098 A 
ATOM      3  C   UNL     1       7.667  19.911  29.780  1.00  0.00     0.018 A 
ATOM      4  C   UNL     1       8.609  19.447  30.670  1.00  0.00     0.121 A 
ATOM      5  N   UNL     1       9.834  19.880  30.236  1.00  0.00    -0.240 N 
ENDROOT
BRANCH   5   6
ATOM      6  C   UNL     1      11.077  19.735  30.916  1.00  0.00     0.065 A 
ATOM      7  C   UNL     1      13.451  19.475  32.411  1.00  0.00    -0.003 A 
ATOM      8  C   UNL     1      13.079  20.721  31.888  1.00  0.00     0.012 A 
ATOM      9  C   UNL     1      12.641  18.360  32.172  1.00  0.00     0.012 A 
ATOM     10  C   UNL     1      11.904  20.847  31.131  1.00  0.00     0.029 A 
ATOM     11  C   UNL     1      11.464  18.487  31.430  1.00  0.00     0.029 A 
BRANCH   7  12
ATOM     12  C   UNL     1      14.643  19.276  33.277  1.00  0.00     0.071 C 
ATOM     13  O   UNL     1      15.290  18.244  33.277  1.00  0.00    -0.545 OA
ATOM     14  O   UNL     1      14.968  20.346  34.030  1.00  0.00    -0.545 OA
ENDBRANCH   7  12
ENDBRANCH   5   6
BRANCH   2  15
ATOM     15  C   UNL     1       7.926  21.128  27.489  1.00  0.00     0.003 A 
ATOM     16  C   UNL     1       6.840  22.018  27.490  1.00  0.00     0.013 A 
ATOM     17  C   UNL     1       8.540  20.831  26.259  1.00  0.00     0.013 A 
ATOM     18  C   UNL     1       6.375  22.577  26.293  1.00  0.00     0.040 A 
ATOM     19  C   UNL     1       8.068  21.377  25.062  1.00  0.00     0.040 A 
ATOM     20  C   UNL     1       6.991  22.248  25.091  1.00  0.00     0.123 A 
ATOM     21  F   UNL     1       6.546  22.785  23.947  1.00  0.00    -0.207 F 
ENDBRANCH   2  15
BRANCH   3  22
ATOM     22  C   UNL     1       6.189  19.784  29.931  1.00  0.00     0.152 C 
BRANCH  22  23
ATOM     23  N   UNL     1       5.707  18.410  30.023  1.00  0.00    -0.381 N 
ATOM     24  H   UNL     1       5.551  17.989  30.899  1.00  0.00     0.160 HD
BRANCH  23  25
ATOM     25  C   UNL     1       5.473  17.702  28.838  1.00  0.00     0.035 A 
ATOM     26  C   UNL     1       5.506  18.396  27.621  1.00  0.00     0.041 A 
ATOM     27  C   UNL     1       5.061  16.363  28.814  1.00  0.00     0.026 A 
ATOM     28  C   UNL     1       5.226  17.744  26.419  1.00  0.00     0.020 A 
ATOM     29  C   UNL     1       4.777  15.710  27.611  1.00  0.00     0.003 A 
ATOM     30  C   UNL     1       4.871  16.399  26.408  1.00  0.00     0.016 A 
ATOM     31  Br  UNL     1       5.321  18.698  24.789  1.00  0.00    -0.051 Br
ENDBRANCH  23  25
ENDBRANCH  22  23
ENDBRANCH   3  22
TORSDOF 6
ENDMDL
MODEL 6
REMARK VINA RESULT:    -6.309      7.623     11.114
REMARK INTER + INTRA:         -10.776
REMARK INTER:                  -8.369
REMARK INTRA:                  -2.406
REMARK UNBOUND:                -2.254
REMARK SMILES O=C([O-])c1ccc(-n2cc(CNc3cccc(Br)c3)c(-c3ccc(F)cc3)n2)cc1
REMARK SMILES IDX 28 1 20 2 10 3 9 4 8 5 7 6 4 7 5 8 30 9 6 10 29 11 2 12 1 13
REMARK SMILES IDX 3 14 21 15 27 16 22 17 26 18 23 19 24 20 25 21 11 22 12 23
REMARK SMILES IDX 13 25 19 26 14 27 17 28 15 29 16 30 18 31
REMARK H PARENT 12 24
ROOT
ATOM      1  N   UNL     1       8.922  19.440  30.305  1.00  0.00    -0.168 NA
ATOM      2  C   UNL     1       8.121  19.819  29.291  1.00  0.00     0.098 A 
ATOM      3  C   UNL     1       8.825  20.676  28.393  1.00  0.00     0.018 A 
ATOM      4  C   UNL     1      10.047  20.884  28.992  1.00  0.00     0.121 A 
ATOM      5  N   UNL     1      10.095  20.101  30.115  1.00  0.00    -0.240 N 
ENDROOT
BRANCH   5   6
ATOM      6  C   UNL     1      11.216  19.911  30.971  1.00  0.00     0.065 A 
ATOM      7  C   UNL     1      13.532  19.507  32.523  1.00  0.00    -0.003 A 
ATOM      8  C   UNL     1      12.678  18.433  32.238  1.00  0.00     0.012 A 
ATOM      9  C   UNL     1      13.217  20.782  32.044  1.00  0.00     0.012 A 
ATOM     10  C   UNL     1      11.517  18.638  31.476  1.00  0.00     0.029 A 
ATOM     11  C   UNL     1      12.069  20.985  31.275  1.00  0.00     0.029 A 
BRANCH   7  12
ATOM     12  C   UNL     1      14.813  19.357  33.264  1.00  0.00     0.071 C 
ATOM     13  O   UNL     1      15.362  20.290  33.822  1.00  0.00    -0.545 OA
ATOM     14  O   UNL     1      15.290  18.096  33.299  1.00  0.00    -0.545 OA
ENDBRANCH   7  12
ENDBRANCH   5   6
BRANCH   2  15
ATOM     15  C   UNL     1       6.730  19.345  29.192  1.00  0.00     0.003 A 
ATOM     16  C   UNL     1       5.778  19.687  30.166  1.00  0.00     0.013 A 
ATOM     17  C   UNL     1       6.314  18.550  28.109  1.00  0.00     0.013 A 
ATOM     18  C   UNL     1       4.458  19.232  30.065  1.00  0.00     0.040 A 
ATOM     19  C   UNL     1       5.001  18.083  28.013  1.00  0.00     0.040 A 
ATOM     20  C   UNL     1       4.083  18.432  28.991  1.00  0.00     0.123 A 
ATOM     21  F   UNL     1       2.819  17.999  28.894  1.00  0.00    -0.207 F 
ENDBRANCH   2  15
BRANCH   3  22
ATOM     22  C   UNL     1       8.395  21.227  27.076  1.00  0.00     0.152 C 
BRANCH  22  23
ATOM     23  N   UNL     1       7.567  22.425  27.165  1.00  0.00    -0.381 N 
ATOM     24  H   UNL     1       7.977  23.321  27.156  1.00  0.00     0.160 HD
BRANCH  23  25
ATOM     25  C   UNL     1       6.179  22.275  27.263  1.00  0.00     0.035 A 
ATOM     26  C   UNL     1       5.528  22.762  28.404  1.00  0.00     0.041 A 
ATOM     27  C   UNL     1       5.422  21.532  26.347  1.00  0.00     0.026 A 
ATOM     28  C   UNL     1       4.153  22.588  28.571  1.00  0.00     0.020 A 
ATOM     29  C   UNL     1       4.046  21.355  26.514  1.00  0.00     0.003 A 
ATOM     30  C   UNL     1       3.405  21.894  27.623  1.00  0.00     0.016 A 
ATOM     31  Br  UNL     1       3.295  23.294  30.101  1.00  0.00    -0.051 Br
ENDBRANCH  23  25
ENDBRANCH  22  23
ENDBRANCH   3  22
TORSDOF 6
ENDMDL
MODEL 7
REMARK VINA RESULT:    -6.307      1.638      2.082
REMARK INTER + INTRA:         -10.773
REMARK INTER:                  -9.773
REMARK INTRA:                  -1.000
REMARK UNBOUND:                -2.254
REMARK SMILES O=C([O-])c1ccc(-n2cc(CNc3cccc(Br)c3)c(-c3ccc(F)cc3)n2)cc1
REMARK SMILES IDX 28 1 20 2 10 3 9 4 8 5 7 6 4 7 5 8 30 9 6 10 29 11 2 12 1 13
REMARK SMILES IDX 3 14 21 15 27 16 22 17 26 18 23 19 24 20 25 21 11 22 12 23
REMARK SMILES IDX 13 25 19 26 14 27 17 28 15 29 16 30 18 31
REMARK H PARENT 12 24
ROOT
ATOM      1  N   UNL     1      11.984  15.604  34.769  1.00  0.00    -0.168 NA
ATOM      2  C   UNL     1      13.134  16.298  34.863  1.00  0.00     0.098 A 
ATOM      3  C   UNL     1      13.305  17.137  33.721  1.00  0.00     0.018 A 
ATOM      4  C   UNL     1      12.259  16.812  32.888  1.00  0.00     0.121 A 
ATOM      5  N   UNL     1      11.460  15.922  33.556  1.00  0.00    -0.240 N 
ENDROOT
BRANCH   5   6
ATOM      6  C   UNL     1      10.204  15.413  33.118  1.00  0.00     0.065 A 
ATOM      7  C   UNL     1       7.657  14.569  32.259  1.00  0.00    -0.003 A 
ATOM      8  C   UNL     1       7.978  14.567  33.624  1.00  0.00     0.012 A 
ATOM      9  C   UNL     1       8.616  14.980  31.329  1.00  0.00     0.012 A 
ATOM     10  C   UNL     1       9.252  14.974  34.050  1.00  0.00     0.029 A 
ATOM     11  C   UNL     1       9.879  15.398  31.752  1.00  0.00     0.029 A 
BRANCH   7  12
ATOM     12  C   UNL     1       6.310  14.217  31.737  1.00  0.00     0.071 C 
ATOM     13  O   UNL     1       5.382  13.915  32.466  1.00  0.00    -0.545 OA
ATOM     14  O   UNL     1       6.194  14.300  30.397  1.00  0.00    -0.545 OA
ENDBRANCH   7  12
ENDBRANCH   5   6
BRANCH   2  15
ATOM     15  C   UNL     1      14.019  16.164  36.033  1.00  0.00     0.003 A 
ATOM     16  C   UNL     1      15.230  15.458  35.946  1.00  0.00     0.013 A 
ATOM     17  C   UNL     1      13.683  16.755  37.263  1.00  0.00     0.013 A 
ATOM     18  C   UNL     1      16.066  15.335  37.062  1.00  0.00     0.040 A 
ATOM     19  C   UNL     1      14.509  16.621  38.382  1.00  0.00     0.040 A 
ATOM     20  C   UNL     1      15.695  15.915  38.270  1.00  0.00     0.123 A 
ATOM     21  F   UNL     1      16.497  15.799  39.337  1.00  0.00    -0.207 F 
ENDBRANCH   2  15
BRANCH   3  22
ATOM     22  C   UNL     1      14.346  18.170  33.452  1.00  0.00     0.152 C 
BRANCH  22  23
ATOM     23  N   UNL     1      14.750  18.938  34.625  1.00  0.00    -0.381 N 
ATOM     24  H   UNL     1      15.325  18.537  35.316  1.00  0.00     0.160 HD
BRANCH  23  25
ATOM     25  C   UNL     1      14.303  20.259  34.747  1.00  0.00     0.035 A 
ATOM     26  C   UNL     1      14.153  21.030  33.586  1.00  0.00     0.041 A 
ATOM     27  C   UNL     1      14.136  20.900  35.982  1.00  0.00     0.026 A 
ATOM     28  C   UNL     1      13.761  22.368  33.662  1.00  0.00     0.020 A 
ATOM     29  C   UNL     1      13.746  22.241  36.059  1.00  0.00     0.003 A 
ATOM     30  C   UNL     1      13.546  22.975  34.896  1.00  0.00     0.016 A 
ATOM     31  Br  UNL     1      13.526  23.369  32.076  1.00  0.00    -0.051 Br
ENDBRANCH  23  25
ENDBRANCH  22  23
ENDBRANCH   3  22
TORSDOF 6
ENDMDL
MODEL 8
REMARK VINA RESULT:    -6.292      7.835     11.417
REMARK INTER + INTRA:         -10.752
REMARK INTER:                  -8.541
REMARK INTRA:                  -2.211
REMARK UNBOUND:                -2.254
REMARK SMILES O=C([O-])c1ccc(-n2cc(CNc3cccc(Br)c3)c(-c3ccc(F)cc3)n2)cc1
REMARK SMILES IDX 28 1 20 2 10 3 9 4 8 5 7 6 4 7 5 8 30 9 6 10 29 11 2 12 1 13
REMARK SMILES IDX 3 14 21 15 27 16 22 17 26 18 23 19 24 20 25 21 11 22 12 23
REMARK SMILES IDX 13 25 19 26 14 27 17 28 15 29 16 30 18 31
REMARK H PARENT 12 24
ROOT
ATOM      1  N   UNL     1       8.868  19.628  30.364  1.00  0.00    -0.168 NA
ATOM      2  C   UNL     1       8.153  20.144  29.346  1.00  0.00     0.098 A 
ATOM      3  C   UNL     1       9.000  20.884  28.468  1.00  0.00     0.018 A 
ATOM      4  C   UNL     1      10.230  20.885  29.085  1.00  0.00     0.121 A 
ATOM      5  N   UNL     1      10.134  20.092  30.198  1.00  0.00    -0.240 N 
ENDROOT
BRANCH   5   6
ATOM      6  C   UNL     1      11.198  19.713  31.065  1.00  0.00     0.065 A 
ATOM      7  C   UNL     1      13.399  18.930  32.641  1.00  0.00    -0.003 A 
ATOM      8  C   UNL     1      12.422  17.993  32.277  1.00  0.00     0.012 A 
ATOM      9  C   UNL     1      13.263  20.259  32.227  1.00  0.00     0.012 A 
ATOM     10  C   UNL     1      11.318  18.386  31.505  1.00  0.00     0.029 A 
ATOM     11  C   UNL     1      12.173  20.649  31.447  1.00  0.00     0.029 A 
BRANCH   7  12
ATOM     12  C   UNL     1      14.628  18.576  33.398  1.00  0.00     0.071 C 
ATOM     13  O   UNL     1      15.708  18.414  32.859  1.00  0.00    -0.545 OA
ATOM     14  O   UNL     1      14.453  18.489  34.732  1.00  0.00    -0.545 OA
ENDBRANCH   7  12
ENDBRANCH   5   6
BRANCH   2  15
ATOM     15  C   UNL     1       6.705  19.902  29.223  1.00  0.00     0.003 A 
ATOM     16  C   UNL     1       6.190  18.596  29.196  1.00  0.00     0.013 A 
ATOM     17  C   UNL     1       5.799  20.974  29.149  1.00  0.00     0.013 A 
ATOM     18  C   UNL     1       4.813  18.374  29.079  1.00  0.00     0.040 A 
ATOM     19  C   UNL     1       4.425  20.755  29.017  1.00  0.00     0.040 A 
ATOM     20  C   UNL     1       3.944  19.456  28.987  1.00  0.00     0.123 A 
ATOM     21  F   UNL     1       2.626  19.243  28.877  1.00  0.00    -0.207 F 
ENDBRANCH   2  15
BRANCH   3  22
ATOM     22  C   UNL     1       8.683  21.513  27.154  1.00  0.00     0.152 C 
BRANCH  22  23
ATOM     23  N   UNL     1       8.295  20.567  26.112  1.00  0.00    -0.381 N 
ATOM     24  H   UNL     1       8.964  19.977  25.693  1.00  0.00     0.160 HD
BRANCH  23  25
ATOM     25  C   UNL     1       6.953  20.517  25.719  1.00  0.00     0.035 A 
ATOM     26  C   UNL     1       6.252  21.719  25.561  1.00  0.00     0.041 A 
ATOM     27  C   UNL     1       6.229  19.321  25.617  1.00  0.00     0.026 A 
ATOM     28  C   UNL     1       4.897  21.717  25.223  1.00  0.00     0.020 A 
ATOM     29  C   UNL     1       4.872  19.318  25.282  1.00  0.00     0.003 A 
ATOM     30  C   UNL     1       4.205  20.519  25.071  1.00  0.00     0.016 A 
ATOM     31  Br  UNL     1       3.989  23.357  24.975  1.00  0.00    -0.051 Br
ENDBRANCH  23  25
ENDBRANCH  22  23
ENDBRANCH   3  22
TORSDOF 6
ENDMDL
MODEL 9
REMARK VINA RESULT:    -6.181      4.498      7.238
REMARK INTER + INTRA:         -10.603
REMARK INTER:                  -9.791
REMARK INTRA:                  -0.812
REMARK UNBOUND:                -2.254
REMARK SMILES O=C([O-])c1ccc(-n2cc(CNc3cccc(Br)c3)c(-c3ccc(F)cc3)n2)cc1
REMARK SMILES IDX 28 1 20 2 10 3 9 4 8 5 7 6 4 7 5 8 30 9 6 10 29 11 2 12 1 13
REMARK SMILES IDX 3 14 21 15 27 16 22 17 26 18 23 19 24 20 25 21 11 22 12 23
REMARK SMILES IDX 13 25 19 26 14 27 17 28 15 29 16 30 18 31
REMARK H PARENT 12 24
ROOT
ATOM      1  N   UNL     1      11.997  17.367  32.596  1.00  0.00    -0.168 NA
ATOM      2  C   UNL     1      11.623  16.269  33.280  1.00  0.00     0.098 A 
ATOM      3  C   UNL     1      12.672  15.841  34.147  1.00  0.00     0.018 A 
ATOM      4  C   UNL     1      13.732  16.668  33.851  1.00  0.00     0.121 A 
ATOM      5  N   UNL     1      13.289  17.599  32.949  1.00  0.00    -0.240 N 
ENDROOT
BRANCH   5   6
ATOM      6  C   UNL     1      14.016  18.721  32.460  1.00  0.00     0.065 A 
ATOM      7  C   UNL     1      15.435  20.879  31.333  1.00  0.00    -0.003 A 
ATOM      8  C   UNL     1      16.120  19.740  31.779  1.00  0.00     0.012 A 
ATOM      9  C   UNL     1      14.045  20.941  31.466  1.00  0.00     0.012 A 
ATOM     10  C   UNL     1      15.414  18.671  32.353  1.00  0.00     0.029 A 
ATOM     11  C   UNL     1      13.339  19.873  32.025  1.00  0.00     0.029 A 
BRANCH   7  12
ATOM     12  C   UNL     1      16.104  22.020  30.654  1.00  0.00     0.071 C 
ATOM     13  O   UNL     1      16.385  23.055  31.231  1.00  0.00    -0.545 OA
ATOM     14  O   UNL     1      16.407  21.795  29.359  1.00  0.00    -0.545 OA
ENDBRANCH   7  12
ENDBRANCH   5   6
BRANCH   2  15
ATOM     15  C   UNL     1      10.286  15.676  33.110  1.00  0.00     0.003 A 
ATOM     16  C   UNL     1       9.667  15.636  31.850  1.00  0.00     0.013 A 
ATOM     17  C   UNL     1       9.600  15.118  34.203  1.00  0.00     0.013 A 
ATOM     18  C   UNL     1       8.396  15.071  31.696  1.00  0.00     0.040 A 
ATOM     19  C   UNL     1       8.324  14.566  34.054  1.00  0.00     0.040 A 
ATOM     20  C   UNL     1       7.735  14.545  32.801  1.00  0.00     0.123 A 
ATOM     21  F   UNL     1       6.520  14.002  32.652  1.00  0.00    -0.207 F 
ENDBRANCH   2  15
BRANCH   3  22
ATOM     22  C   UNL     1      12.668  14.765  35.179  1.00  0.00     0.152 C 
BRANCH  22  23
ATOM     23  N   UNL     1      12.630  15.251  36.555  1.00  0.00    -0.381 N 
ATOM     24  H   UNL     1      11.788  15.247  37.067  1.00  0.00     0.160 HD
BRANCH  23  25
ATOM     25  C   UNL     1      13.815  15.722  37.132  1.00  0.00     0.035 A 
ATOM     26  C   UNL     1      13.778  16.913  37.869  1.00  0.00     0.041 A 
ATOM     27  C   UNL     1      15.068  15.142  36.891  1.00  0.00     0.026 A 
ATOM     28  C   UNL     1      14.944  17.450  38.418  1.00  0.00     0.020 A 
ATOM     29  C   UNL     1      16.236  15.680  37.438  1.00  0.00     0.003 A 
ATOM     30  C   UNL     1      16.174  16.831  38.214  1.00  0.00     0.016 A 
ATOM     31  Br  UNL     1      14.856  19.037  39.442  1.00  0.00    -0.051 Br
ENDBRANCH  23  25
ENDBRANCH  22  23
ENDBRANCH   3  22
TORSDOF 6
ENDMDL
MODEL 10
REMARK VINA RESULT:    -6.114      7.405     11.468
REMARK INTER + INTRA:         -10.512
REMARK INTER:                  -9.453
REMARK INTRA:                  -1.058
REMARK UNBOUND:                -2.254
REMARK SMILES O=C([O-])c1ccc(-n2cc(CNc3cccc(Br)c3)c(-c3ccc(F)cc3)n2)cc1
REMARK SMILES IDX 28 1 20 2 10 3 9 4 8 5 7 6 4 7 5 8 30 9 6 10 29 11 2 12 1 13
REMARK SMILES IDX 3 14 21 15 27 16 22 17 26 18 23 19 24 20 25 21 11 22 12 23
REMARK SMILES IDX 13 25 19 26 14 27 17 28 15 29 16 30 18 31
REMARK H PARENT 12 24
ROOT
ATOM      1  N   UNL     1       9.788  20.618  29.106  1.00  0.00    -0.168 NA
ATOM      2  C   UNL     1       8.488  20.590  28.758  1.00  0.00     0.098 A 
ATOM      3  C   UNL     1       7.728  19.871  29.729  1.00  0.00     0.018 A 
ATOM      4  C   UNL     1       8.663  19.368  30.604  1.00  0.00     0.121 A 
ATOM      5  N   UNL     1       9.885  19.863  30.232  1.00  0.00    -0.240 N 
ENDROOT
BRANCH   5   6
ATOM      6  C   UNL     1      11.116  19.699  30.929  1.00  0.00     0.065 A 
ATOM      7  C   UNL     1      13.466  19.408  32.455  1.00  0.00    -0.003 A 
ATOM      8  C   UNL     1      13.129  20.655  31.909  1.00  0.00     0.012 A 
ATOM      9  C   UNL     1      12.635  18.309  32.222  1.00  0.00     0.012 A 
ATOM     10  C   UNL     1      11.966  20.796  31.137  1.00  0.00     0.029 A 
ATOM     11  C   UNL     1      11.469  18.451  31.466  1.00  0.00     0.029 A 
BRANCH   7  12
ATOM     12  C   UNL     1      14.644  19.195  33.338  1.00  0.00     0.071 C 
ATOM     13  O   UNL     1      15.145  20.092  33.992  1.00  0.00    -0.545 OA
ATOM     14  O   UNL     1      15.082  17.921  33.382  1.00  0.00    -0.545 OA
ENDBRANCH   7  12
ENDBRANCH   5   6
BRANCH   2  15
ATOM     15  C   UNL     1       8.003  21.260  27.540  1.00  0.00     0.003 A 
ATOM     16  C   UNL     1       7.903  20.565  26.324  1.00  0.00     0.013 A 
ATOM     17  C   UNL     1       7.611  22.610  27.566  1.00  0.00     0.013 A 
ATOM     18  C   UNL     1       7.442  21.209  25.169  1.00  0.00     0.040 A 
ATOM     19  C   UNL     1       7.163  23.259  26.411  1.00  0.00     0.040 A 
ATOM     20  C   UNL     1       7.080  22.551  25.224  1.00  0.00     0.123 A 
ATOM     21  F   UNL     1       6.636  23.165  24.119  1.00  0.00    -0.207 F 
ENDBRANCH   2  15
BRANCH   3  22
ATOM     22  C   UNL     1       6.251  19.696  29.836  1.00  0.00     0.152 C 
BRANCH  22  23
ATOM     23  N   UNL     1       5.672  18.823  28.820  1.00  0.00    -0.381 N 
ATOM     24  H   UNL     1       5.838  18.986  27.863  1.00  0.00     0.160 HD
BRANCH  23  25
ATOM     25  C   UNL     1       4.876  17.749  29.234  1.00  0.00     0.035 A 
ATOM     26  C   UNL     1       5.502  16.554  29.613  1.00  0.00     0.041 A 
ATOM     27  C   UNL     1       3.477  17.756  29.152  1.00  0.00     0.026 A 
ATOM     28  C   UNL     1       4.748  15.439  29.983  1.00  0.00     0.020 A 
ATOM     29  C   UNL     1       2.721  16.639  29.519  1.00  0.00     0.003 A 
ATOM     30  C   UNL     1       3.357  15.480  29.948  1.00  0.00     0.016 A 
ATOM     31  Br  UNL     1       5.621  13.854  30.531  1.00  0.00    -0.051 Br
ENDBRANCH  23  25
ENDBRANCH  22  23
ENDBRANCH   3  22
TORSDOF 6
ENDMDL
MODEL 11
REMARK VINA RESULT:    -5.821      7.827     11.297
REMARK INTER + INTRA:         -10.116
REMARK INTER:                  -7.884
REMARK INTRA:                  -2.232
REMARK UNBOUND:                -2.254
REMARK SMILES O=C([O-])c1ccc(-n2cc(CNc3cccc(Br)c3)c(-c3ccc(F)cc3)n2)cc1
REMARK SMILES IDX 28 1 20 2 10 3 9 4 8 5 7 6 4 7 5 8 30 9 6 10 29 11 2 12 1 13
REMARK SMILES IDX 3 14 21 15 27 16 22 17 26 18 23 19 24 20 25 21 11 22 12 23
REMARK SMILES IDX 13 25 19 26 14 27 17 28 15 29 16 30 18 31
REMARK H PARENT 12 24
ROOT
ATOM      1  N   UNL     1       8.861  19.642  30.371  1.00  0.00    -0.168 NA
ATOM      2  C   UNL     1       8.196  20.385  29.466  1.00  0.00     0.098 A 
ATOM      3  C   UNL     1       9.099  21.224  28.749  1.00  0.00     0.018 A 
ATOM      4  C   UNL     1      10.317  21.032  29.360  1.00  0.00     0.121 A 
ATOM      5  N   UNL     1      10.156  20.050  30.301  1.00  0.00    -0.240 N 
ENDROOT
BRANCH   5   6
ATOM      6  C   UNL     1      11.181  19.448  31.085  1.00  0.00     0.065 A 
ATOM      7  C   UNL     1      13.120  18.302  32.779  1.00  0.00    -0.003 A 
ATOM      8  C   UNL     1      13.254  19.630  32.348  1.00  0.00     0.012 A 
ATOM      9  C   UNL     1      12.024  17.549  32.348  1.00  0.00     0.012 A 
ATOM     10  C   UNL     1      12.296  20.196  31.493  1.00  0.00     0.029 A 
ATOM     11  C   UNL     1      11.062  18.114  31.508  1.00  0.00     0.029 A 
BRANCH   7  12
ATOM     12  C   UNL     1      14.056  17.656  33.736  1.00  0.00     0.071 C 
ATOM     13  O   UNL     1      13.678  16.913  34.624  1.00  0.00    -0.545 OA
ATOM     14  O   UNL     1      15.357  17.931  33.513  1.00  0.00    -0.545 OA
ENDBRANCH   7  12
ENDBRANCH   5   6
BRANCH   2  15
ATOM     15  C   UNL     1       6.738  20.261  29.293  1.00  0.00     0.003 A 
ATOM     16  C   UNL     1       5.894  21.372  29.455  1.00  0.00     0.013 A 
ATOM     17  C   UNL     1       6.155  19.030  28.943  1.00  0.00     0.013 A 
ATOM     18  C   UNL     1       4.510  21.246  29.289  1.00  0.00     0.040 A 
ATOM     19  C   UNL     1       4.772  18.900  28.791  1.00  0.00     0.040 A 
ATOM     20  C   UNL     1       3.962  20.011  28.962  1.00  0.00     0.123 A 
ATOM     21  F   UNL     1       2.638  19.893  28.801  1.00  0.00    -0.207 F 
ENDBRANCH   2  15
BRANCH   3  22
ATOM     22  C   UNL     1       8.843  22.109  27.576  1.00  0.00     0.152 C 
BRANCH  22  23
ATOM     23  N   UNL     1       8.549  21.396  26.337  1.00  0.00    -0.381 N 
ATOM     24  H   UNL     1       9.276  21.108  25.738  1.00  0.00     0.160 HD
BRANCH  23  25
ATOM     25  C   UNL     1       7.212  21.131  26.017  1.00  0.00     0.035 A 
ATOM     26  C   UNL     1       6.857  19.833  25.628  1.00  0.00     0.041 A 
ATOM     27  C   UNL     1       6.234  22.130  25.925  1.00  0.00     0.026 A 
ATOM     28  C   UNL     1       5.547  19.533  25.249  1.00  0.00     0.020 A 
ATOM     29  C   UNL     1       4.923  21.832  25.543  1.00  0.00     0.003 A 
ATOM     30  C   UNL     1       4.574  20.527  25.215  1.00  0.00     0.016 A 
ATOM     31  Br  UNL     1       5.090  17.762  24.770  1.00  0.00    -0.051 Br
ENDBRANCH  23  25
ENDBRANCH  22  23
ENDBRANCH   3  22
TORSDOF 6
ENDMDL
MODEL 12
REMARK VINA RESULT:    -5.820      7.642     11.457
REMARK INTER + INTRA:         -10.115
REMARK INTER:                  -8.584
REMARK INTRA:                  -1.531
REMARK UNBOUND:                -2.254
REMARK SMILES O=C([O-])c1ccc(-n2cc(CNc3cccc(Br)c3)c(-c3ccc(F)cc3)n2)cc1
REMARK SMILES IDX 28 1 20 2 10 3 9 4 8 5 7 6 4 7 5 8 30 9 6 10 29 11 2 12 1 13
REMARK SMILES IDX 3 14 21 15 27 16 22 17 26 18 23 19 24 20 25 21 11 22 12 23
REMARK SMILES IDX 13 25 19 26 14 27 17 28 15 29 16 30 18 31
REMARK H PARENT 12 24
ROOT
ATOM      1  N   UNL     1       8.701  19.357  30.428  1.00  0.00    -0.168 NA
ATOM      2  C   UNL     1       7.797  19.843  29.556  1.00  0.00     0.098 A 
ATOM      3  C   UNL     1       8.370  20.890  28.774  1.00  0.00     0.018 A 
ATOM      4  C   UNL     1       9.622  21.084  29.312  1.00  0.00     0.121 A 
ATOM      5  N   UNL     1       9.811  20.127  30.274  1.00  0.00    -0.240 N 
ENDROOT
BRANCH   5   6
ATOM      6  C   UNL     1      11.009  19.878  31.002  1.00  0.00     0.065 A 
ATOM      7  C   UNL     1      13.460  19.356  32.290  1.00  0.00    -0.003 A 
ATOM      8  C   UNL     1      12.534  18.323  32.089  1.00  0.00     0.012 A 
ATOM      9  C   UNL     1      13.150  20.649  31.860  1.00  0.00     0.012 A 
ATOM     10  C   UNL     1      11.307  18.586  31.460  1.00  0.00     0.029 A 
ATOM     11  C   UNL     1      11.936  20.911  31.221  1.00  0.00     0.029 A 
BRANCH   7  12
ATOM     12  C   UNL     1      14.805  19.142  32.887  1.00  0.00     0.071 C 
ATOM     13  O   UNL     1      15.595  20.051  33.069  1.00  0.00    -0.545 OA
ATOM     14  O   UNL     1      15.058  17.867  33.243  1.00  0.00    -0.545 OA
ENDBRANCH   7  12
ENDBRANCH   5   6
BRANCH   2  15
ATOM     15  C   UNL     1       6.434  19.289  29.474  1.00  0.00     0.003 A 
ATOM     16  C   UNL     1       5.328  20.123  29.244  1.00  0.00     0.013 A 
ATOM     17  C   UNL     1       6.207  17.908  29.605  1.00  0.00     0.013 A 
ATOM     18  C   UNL     1       4.036  19.590  29.168  1.00  0.00     0.040 A 
ATOM     19  C   UNL     1       4.917  17.375  29.543  1.00  0.00     0.040 A 
ATOM     20  C   UNL     1       3.843  18.221  29.321  1.00  0.00     0.123 A 
ATOM     21  F   UNL     1       2.606  17.712  29.245  1.00  0.00    -0.207 F 
ENDBRANCH   2  15
BRANCH   3  22
ATOM     22  C   UNL     1       7.799  21.623  27.608  1.00  0.00     0.152 C 
BRANCH  22  23
ATOM     23  N   UNL     1       8.001  20.962  26.323  1.00  0.00    -0.381 N 
ATOM     24  H   UNL     1       8.897  20.912  25.918  1.00  0.00     0.160 HD
BRANCH  23  25
ATOM     25  C   UNL     1       6.893  20.400  25.678  1.00  0.00     0.035 A 
ATOM     26  C   UNL     1       6.508  19.095  26.014  1.00  0.00     0.041 A 
ATOM     27  C   UNL     1       6.234  21.019  24.607  1.00  0.00     0.026 A 
ATOM     28  C   UNL     1       5.442  18.473  25.360  1.00  0.00     0.020 A 
ATOM     29  C   UNL     1       5.169  20.396  23.950  1.00  0.00     0.003 A 
ATOM     30  C   UNL     1       4.763  19.124  24.335  1.00  0.00     0.016 A 
ATOM     31  Br  UNL     1       4.920  16.728  25.866  1.00  0.00    -0.051 Br
ENDBRANCH  23  25
ENDBRANCH  22  23
ENDBRANCH   3  22
TORSDOF 6
ENDMDL
MODEL 13
REMARK VINA RESULT:    -5.751      6.763      9.003
REMARK INTER + INTRA:         -10.022
REMARK INTER:                  -9.340
REMARK INTRA:                  -0.681
REMARK UNBOUND:                -2.254
REMARK SMILES O=C([O-])c1ccc(-n2cc(CNc3cccc(Br)c3)c(-c3ccc(F)cc3)n2)cc1
REMARK SMILES IDX 28 1 20 2 10 3 9 4 8 5 7 6 4 7 5 8 30 9 6 10 29 11 2 12 1 13
REMARK SMILES IDX 3 14 21 15 27 16 22 17 26 18 23 19 24 20 25 21 11 22 12 23
REMARK SMILES IDX 13 25 19 26 14 27 17 28 15 29 16 30 18 31
REMARK H PARENT 12 24
ROOT
ATOM      1  N   UNL     1       6.961  19.782  27.746  1.00  0.00    -0.168 NA
ATOM      2  C   UNL     1       8.130  20.412  27.969  1.00  0.00     0.098 A 
ATOM      3  C   UNL     1       8.606  20.129  29.284  1.00  0.00     0.018 A 
ATOM      4  C   UNL     1       7.598  19.400  29.872  1.00  0.00     0.121 A 
ATOM      5  N   UNL     1       6.643  19.171  28.917  1.00  0.00    -0.240 N 
ENDROOT
BRANCH   5   6
ATOM      6  C   UNL     1       5.484  18.355  29.053  1.00  0.00     0.065 A 
ATOM      7  C   UNL     1       3.173  16.802  29.484  1.00  0.00    -0.003 A 
ATOM      8  C   UNL     1       4.443  16.266  29.744  1.00  0.00     0.012 A 
ATOM      9  C   UNL     1       3.065  18.107  28.995  1.00  0.00     0.012 A 
ATOM     10  C   UNL     1       5.594  17.035  29.516  1.00  0.00     0.029 A 
ATOM     11  C   UNL     1       4.210  18.879  28.781  1.00  0.00     0.029 A 
BRANCH   7  12
ATOM     12  C   UNL     1       1.907  16.074  29.764  1.00  0.00     0.071 C 
ATOM     13  O   UNL     1       1.259  15.524  28.892  1.00  0.00    -0.545 OA
ATOM     14  O   UNL     1       1.562  16.041  31.067  1.00  0.00    -0.545 OA
ENDBRANCH   7  12
ENDBRANCH   5   6
BRANCH   2  15
ATOM     15  C   UNL     1       8.768  21.239  26.930  1.00  0.00     0.003 A 
ATOM     16  C   UNL     1       9.560  22.346  27.273  1.00  0.00     0.013 A 
ATOM     17  C   UNL     1       8.616  20.929  25.567  1.00  0.00     0.013 A 
ATOM     18  C   UNL     1      10.163  23.127  26.280  1.00  0.00     0.040 A 
ATOM     19  C   UNL     1       9.205  21.715  24.574  1.00  0.00     0.040 A 
ATOM     20  C   UNL     1       9.977  22.806  24.939  1.00  0.00     0.123 A 
ATOM     21  F   UNL     1      10.557  23.552  23.990  1.00  0.00    -0.207 F 
ENDBRANCH   2  15
BRANCH   3  22
ATOM     22  C   UNL     1       9.905  20.492  29.920  1.00  0.00     0.152 C 
BRANCH  22  23
ATOM     23  N   UNL     1      10.499  19.429  30.725  1.00  0.00    -0.381 N 
ATOM     24  H   UNL     1      10.066  18.548  30.794  1.00  0.00     0.160 HD
BRANCH  23  25
ATOM     25  C   UNL     1      11.699  19.690  31.397  1.00  0.00     0.035 A 
ATOM     26  C   UNL     1      12.171  21.009  31.446  1.00  0.00     0.041 A 
ATOM     27  C   UNL     1      12.531  18.680  31.900  1.00  0.00     0.026 A 
ATOM     28  C   UNL     1      13.389  21.309  32.059  1.00  0.00     0.020 A 
ATOM     29  C   UNL     1      13.751  18.980  32.511  1.00  0.00     0.003 A 
ATOM     30  C   UNL     1      14.178  20.300  32.603  1.00  0.00     0.016 A 
ATOM     31  Br  UNL     1      13.978  23.104  32.147  1.00  0.00    -0.051 Br
ENDBRANCH  23  25
ENDBRANCH  22  23
ENDBRANCH   3  22
TORSDOF 6
ENDMDL
MODEL 14
REMARK VINA RESULT:    -5.711      2.521      3.082
REMARK INTER + INTRA:          -9.968
REMARK INTER:                  -9.029
REMARK INTRA:                  -0.939
REMARK UNBOUND:                -2.254
REMARK SMILES O=C([O-])c1ccc(-n2cc(CNc3cccc(Br)c3)c(-c3ccc(F)cc3)n2)cc1
REMARK SMILES IDX 28 1 20 2 10 3 9 4 8 5 7 6 4 7 5 8 30 9 6 10 29 11 2 12 1 13
REMARK SMILES IDX 3 14 21 15 27 16 22 17 26 18 23 19 24 20 25 21 11 22 12 23
REMARK SMILES IDX 13 25 19 26 14 27 17 28 15 29 16 30 18 31
REMARK H PARENT 12 24
ROOT
ATOM      1  N   UNL     1      11.881  15.727  34.598  1.00  0.00    -0.168 NA
ATOM      2  C   UNL     1      13.015  16.448  34.681  1.00  0.00     0.098 A 
ATOM      3  C   UNL     1      13.161  17.280  33.530  1.00  0.00     0.018 A 
ATOM      4  C   UNL     1      12.119  16.923  32.705  1.00  0.00     0.121 A 
ATOM      5  N   UNL     1      11.345  16.021  33.385  1.00  0.00    -0.240 N 
ENDROOT
BRANCH   5   6
ATOM      6  C   UNL     1      10.099  15.479  32.958  1.00  0.00     0.065 A 
ATOM      7  C   UNL     1       7.567  14.566  32.126  1.00  0.00    -0.003 A 
ATOM      8  C   UNL     1       7.918  14.533  33.483  1.00  0.00     0.012 A 
ATOM      9  C   UNL     1       8.488  15.042  31.189  1.00  0.00     0.012 A 
ATOM     10  C   UNL     1       9.185  14.974  33.895  1.00  0.00     0.029 A 
ATOM     11  C   UNL     1       9.744  15.494  31.599  1.00  0.00     0.029 A 
BRANCH   7  12
ATOM     12  C   UNL     1       6.222  14.180  31.622  1.00  0.00     0.071 C 
ATOM     13  O   UNL     1       5.981  14.037  30.437  1.00  0.00    -0.545 OA
ATOM     14  O   UNL     1       5.307  13.964  32.589  1.00  0.00    -0.545 OA
ENDBRANCH   7  12
ENDBRANCH   5   6
BRANCH   2  15
ATOM     15  C   UNL     1      13.908  16.346  35.847  1.00  0.00     0.003 A 
ATOM     16  C   UNL     1      13.798  17.242  36.923  1.00  0.00     0.013 A 
ATOM     17  C   UNL     1      14.884  15.336  35.923  1.00  0.00     0.013 A 
ATOM     18  C   UNL     1      14.650  17.139  38.028  1.00  0.00     0.040 A 
ATOM     19  C   UNL     1      15.745  15.240  37.019  1.00  0.00     0.040 A 
ATOM     20  C   UNL     1      15.618  16.140  38.064  1.00  0.00     0.123 A 
ATOM     21  F   UNL     1      16.432  16.041  39.124  1.00  0.00    -0.207 F 
ENDBRANCH   2  15
BRANCH   3  22
ATOM     22  C   UNL     1      14.176  18.334  33.247  1.00  0.00     0.152 C 
BRANCH  22  23
ATOM     23  N   UNL     1      13.614  19.648  32.951  1.00  0.00    -0.381 N 
ATOM     24  H   UNL     1      12.640  19.793  32.963  1.00  0.00     0.160 HD
BRANCH  23  25
ATOM     25  C   UNL     1      14.489  20.698  32.649  1.00  0.00     0.035 A 
ATOM     26  C   UNL     1      14.977  20.814  31.340  1.00  0.00     0.041 A 
ATOM     27  C   UNL     1      15.020  21.557  33.621  1.00  0.00     0.026 A 
ATOM     28  C   UNL     1      15.893  21.813  31.005  1.00  0.00     0.020 A 
ATOM     29  C   UNL     1      15.939  22.555  33.286  1.00  0.00     0.003 A 
ATOM     30  C   UNL     1      16.369  22.693  31.972  1.00  0.00     0.016 A 
ATOM     31  Br  UNL     1      16.499  21.969  29.221  1.00  0.00    -0.051 Br
ENDBRANCH  23  25
ENDBRANCH  22  23
ENDBRANCH   3  22
TORSDOF 6
ENDMDL
MODEL 15
REMARK VINA RESULT:    -5.698      2.700      4.355
REMARK INTER + INTRA:          -9.950
REMARK INTER:                  -9.088
REMARK INTRA:                  -0.862
REMARK UNBOUND:                -2.254
REMARK SMILES O=C([O-])c1ccc(-n2cc(CNc3cccc(Br)c3)c(-c3ccc(F)cc3)n2)cc1
REMARK SMILES IDX 28 1 20 2 10 3 9 4 8 5 7 6 4 7 5 8 30 9 6 10 29 11 2 12 1 13
REMARK SMILES IDX 3 14 21 15 27 16 22 17 26 18 23 19 24 20 25 21 11 22 12 23
REMARK SMILES IDX 13 25 19 26 14 27 17 28 15 29 16 30 18 31
REMARK H PARENT 12 24
ROOT
ATOM      1  N   UNL     1      10.161  16.822  31.900  1.00  0.00    -0.168 NA
ATOM      2  C   UNL     1      11.250  16.578  32.654  1.00  0.00     0.098 A 
ATOM      3  C   UNL     1      11.120  15.327  33.327  1.00  0.00     0.018 A 
ATOM      4  C   UNL     1       9.845  14.900  33.033  1.00  0.00     0.121 A 
ATOM      5  N   UNL     1       9.307  15.793  32.144  1.00  0.00    -0.240 N 
ENDROOT
BRANCH   5   6
ATOM      6  C   UNL     1       8.053  15.678  31.479  1.00  0.00     0.065 A 
ATOM      7  C   UNL     1       5.498  15.519  30.303  1.00  0.00    -0.003 A 
ATOM      8  C   UNL     1       6.016  14.428  31.015  1.00  0.00     0.012 A 
ATOM      9  C   UNL     1       6.265  16.679  30.169  1.00  0.00     0.012 A 
ATOM     10  C   UNL     1       7.295  14.503  31.589  1.00  0.00     0.029 A 
ATOM     11  C   UNL     1       7.533  16.760  30.750  1.00  0.00     0.029 A 
BRANCH   7  12
ATOM     12  C   UNL     1       4.127  15.540  29.727  1.00  0.00     0.071 C 
ATOM     13  O   UNL     1       3.177  15.009  30.273  1.00  0.00    -0.545 OA
ATOM     14  O   UNL     1       4.020  16.227  28.572  1.00  0.00    -0.545 OA
ENDBRANCH   7  12
ENDBRANCH   5   6
BRANCH   2  15
ATOM     15  C   UNL     1      12.383  17.519  32.694  1.00  0.00     0.003 A 
ATOM     16  C   UNL     1      12.372  18.697  31.930  1.00  0.00     0.013 A 
ATOM     17  C   UNL     1      13.498  17.271  33.514  1.00  0.00     0.013 A 
ATOM     18  C   UNL     1      13.452  19.586  31.974  1.00  0.00     0.040 A 
ATOM     19  C   UNL     1      14.583  18.150  33.549  1.00  0.00     0.040 A 
ATOM     20  C   UNL     1      14.549  19.302  32.781  1.00  0.00     0.123 A 
ATOM     21  F   UNL     1      15.581  20.155  32.824  1.00  0.00    -0.207 F 
ENDBRANCH   2  15
BRANCH   3  22
ATOM     22  C   UNL     1      12.117  14.588  34.154  1.00  0.00     0.152 C 
BRANCH  22  23
ATOM     23  N   UNL     1      12.101  14.934  35.571  1.00  0.00    -0.381 N 
ATOM     24  H   UNL     1      11.253  14.961  36.073  1.00  0.00     0.160 HD
BRANCH  23  25
ATOM     25  C   UNL     1      13.315  15.226  36.204  1.00  0.00     0.035 A 
ATOM     26  C   UNL     1      13.340  16.228  37.183  1.00  0.00     0.041 A 
ATOM     27  C   UNL     1      14.539  14.671  35.807  1.00  0.00     0.026 A 
ATOM     28  C   UNL     1      14.537  16.591  37.803  1.00  0.00     0.020 A 
ATOM     29  C   UNL     1      15.738  15.035  36.425  1.00  0.00     0.003 A 
ATOM     30  C   UNL     1      15.737  15.990  37.435  1.00  0.00     0.016 A 
ATOM     31  Br  UNL     1      14.532  17.916  39.151  1.00  0.00    -0.051 Br
ENDBRANCH  23  25
ENDBRANCH  22  23
ENDBRANCH   3  22
TORSDOF 6
ENDMDL
MODEL 16
REMARK VINA RESULT:    -5.458      4.028      5.020
REMARK INTER + INTRA:          -9.626
REMARK INTER:                  -8.655
REMARK INTRA:                  -0.971
REMARK UNBOUND:                -2.254
REMARK SMILES O=C([O-])c1ccc(-n2cc(CNc3cccc(Br)c3)c(-c3ccc(F)cc3)n2)cc1
REMARK SMILES IDX 28 1 20 2 10 3 9 4 8 5 7 6 4 7 5 8 30 9 6 10 29 11 2 12 1 13
REMARK SMILES IDX 3 14 21 15 27 16 22 17 26 18 23 19 24 20 25 21 11 22 12 23
REMARK SMILES IDX 13 25 19 26 14 27 17 28 15 29 16 30 18 31
REMARK H PARENT 12 24
ROOT
ATOM      1  N   UNL     1      11.274  18.818  31.450  1.00  0.00    -0.168 NA
ATOM      2  C   UNL     1      12.414  19.053  32.126  1.00  0.00     0.098 A 
ATOM      3  C   UNL     1      12.858  20.391  31.903  1.00  0.00     0.018 A 
ATOM      4  C   UNL     1      11.990  20.897  30.962  1.00  0.00     0.121 A 
ATOM      5  N   UNL     1      11.027  19.949  30.738  1.00  0.00    -0.240 N 
ENDROOT
BRANCH   5   6
ATOM      6  C   UNL     1       9.862  20.095  29.931  1.00  0.00     0.065 A 
ATOM      7  C   UNL     1       7.601  20.234  28.257  1.00  0.00    -0.003 A 
ATOM      8  C   UNL     1       8.800  20.852  27.876  1.00  0.00     0.012 A 
ATOM      9  C   UNL     1       7.533  19.562  29.481  1.00  0.00     0.012 A 
ATOM     10  C   UNL     1       9.922  20.794  28.717  1.00  0.00     0.029 A 
ATOM     11  C   UNL     1       8.653  19.492  30.313  1.00  0.00     0.029 A 
BRANCH   7  12
ATOM     12  C   UNL     1       6.393  20.194  27.392  1.00  0.00     0.071 C 
ATOM     13  O   UNL     1       5.482  20.996  27.497  1.00  0.00    -0.545 OA
ATOM     14  O   UNL     1       6.410  19.221  26.458  1.00  0.00    -0.545 OA
ENDBRANCH   7  12
ENDBRANCH   5   6
BRANCH   2  15
ATOM     15  C   UNL     1      13.033  18.020  32.975  1.00  0.00     0.003 A 
ATOM     16  C   UNL     1      14.321  18.197  33.506  1.00  0.00     0.013 A 
ATOM     17  C   UNL     1      12.342  16.837  33.290  1.00  0.00     0.013 A 
ATOM     18  C   UNL     1      14.902  17.211  34.311  1.00  0.00     0.040 A 
ATOM     19  C   UNL     1      12.926  15.845  34.082  1.00  0.00     0.040 A 
ATOM     20  C   UNL     1      14.200  16.043  34.589  1.00  0.00     0.123 A 
ATOM     21  F   UNL     1      14.756  15.101  35.362  1.00  0.00    -0.207 F 
ENDBRANCH   2  15
BRANCH   3  22
ATOM     22  C   UNL     1      13.984  21.134  32.539  1.00  0.00     0.152 C 
BRANCH  22  23
ATOM     23  N   UNL     1      13.590  22.374  33.201  1.00  0.00    -0.381 N 
ATOM     24  H   UNL     1      13.509  23.213  32.691  1.00  0.00     0.160 HD
BRANCH  23  25
ATOM     25  C   UNL     1      13.331  22.345  34.576  1.00  0.00     0.035 A 
ATOM     26  C   UNL     1      13.920  21.339  35.352  1.00  0.00     0.041 A 
ATOM     27  C   UNL     1      12.395  23.184  35.196  1.00  0.00     0.026 A 
ATOM     28  C   UNL     1      13.648  21.238  36.718  1.00  0.00     0.020 A 
ATOM     29  C   UNL     1      12.120  23.082  36.563  1.00  0.00     0.003 A 
ATOM     30  C   UNL     1      12.758  22.114  37.330  1.00  0.00     0.016 A 
ATOM     31  Br  UNL     1      14.492  19.895  37.746  1.00  0.00    -0.051 Br
ENDBRANCH  23  25
ENDBRANCH  22  23
ENDBRANCH   3  22
TORSDOF 6
ENDMDL
MODEL 17
REMARK VINA RESULT:    -5.309      4.721      6.511
REMARK INTER + INTRA:          -9.424
REMARK INTER:                  -8.463
REMARK INTRA:                  -0.961
REMARK UNBOUND:                -2.254
REMARK SMILES O=C([O-])c1ccc(-n2cc(CNc3cccc(Br)c3)c(-c3ccc(F)cc3)n2)cc1
REMARK SMILES IDX 28 1 20 2 10 3 9 4 8 5 7 6 4 7 5 8 30 9 6 10 29 11 2 12 1 13
REMARK SMILES IDX 3 14 21 15 27 16 22 17 26 18 23 19 24 20 25 21 11 22 12 23
REMARK SMILES IDX 13 25 19 26 14 27 17 28 15 29 16 30 18 31
REMARK H PARENT 12 24
ROOT
ATOM      1  N   UNL     1      11.449  20.925  30.809  1.00  0.00    -0.168 NA
ATOM      2  C   UNL     1      12.341  20.385  31.660  1.00  0.00     0.098 A 
ATOM      3  C   UNL     1      12.072  18.996  31.848  1.00  0.00     0.018 A 
ATOM      4  C   UNL     1      10.900  18.769  31.162  1.00  0.00     0.121 A 
ATOM      5  N   UNL     1      10.570  19.931  30.515  1.00  0.00    -0.240 N 
ENDROOT
BRANCH   5   6
ATOM      6  C   UNL     1       9.500  20.115  29.594  1.00  0.00     0.065 A 
ATOM      7  C   UNL     1       7.421  20.324  27.704  1.00  0.00    -0.003 A 
ATOM      8  C   UNL     1       8.696  20.827  27.409  1.00  0.00     0.012 A 
ATOM      9  C   UNL     1       7.187  19.732  28.949  1.00  0.00     0.012 A 
ATOM     10  C   UNL     1       9.727  20.735  28.356  1.00  0.00     0.029 A 
ATOM     11  C   UNL     1       8.216  19.628  29.887  1.00  0.00     0.029 A 
BRANCH   7  12
ATOM     12  C   UNL     1       6.298  20.323  26.729  1.00  0.00     0.071 C 
ATOM     13  O   UNL     1       5.434  21.182  26.721  1.00  0.00    -0.545 OA
ATOM     14  O   UNL     1       6.340  19.316  25.834  1.00  0.00    -0.545 OA
ENDBRANCH   7  12
ENDBRANCH   5   6
BRANCH   2  15
ATOM     15  C   UNL     1      13.428  21.187  32.246  1.00  0.00     0.003 A 
ATOM     16  C   UNL     1      14.760  21.005  31.844  1.00  0.00     0.013 A 
ATOM     17  C   UNL     1      13.156  22.171  33.214  1.00  0.00     0.013 A 
ATOM     18  C   UNL     1      15.788  21.771  32.406  1.00  0.00     0.040 A 
ATOM     19  C   UNL     1      14.182  22.928  33.787  1.00  0.00     0.040 A 
ATOM     20  C   UNL     1      15.488  22.723  33.375  1.00  0.00     0.123 A 
ATOM     21  F   UNL     1      16.472  23.458  33.911  1.00  0.00    -0.207 F 
ENDBRANCH   2  15
BRANCH   3  22
ATOM     22  C   UNL     1      12.862  17.969  32.586  1.00  0.00     0.152 C 
BRANCH  22  23
ATOM     23  N   UNL     1      12.178  16.692  32.759  1.00  0.00    -0.381 N 
ATOM     24  H   UNL     1      11.699  16.272  32.009  1.00  0.00     0.160 HD
BRANCH  23  25
ATOM     25  C   UNL     1      12.219  16.076  34.016  1.00  0.00     0.035 A 
ATOM     26  C   UNL     1      13.372  16.220  34.799  1.00  0.00     0.041 A 
ATOM     27  C   UNL     1      11.225  15.199  34.472  1.00  0.00     0.026 A 
ATOM     28  C   UNL     1      13.480  15.579  36.036  1.00  0.00     0.020 A 
ATOM     29  C   UNL     1      11.333  14.556  35.708  1.00  0.00     0.003 A 
ATOM     30  C   UNL     1      12.458  14.755  36.499  1.00  0.00     0.016 A 
ATOM     31  Br  UNL     1      15.029  15.828  37.089  1.00  0.00    -0.051 Br
ENDBRANCH  23  25
ENDBRANCH  22  23
ENDBRANCH   3  22
TORSDOF 6
ENDMDL
MODEL 18
REMARK VINA RESULT:    -5.122      6.980      9.332
REMARK INTER + INTRA:          -9.172
REMARK INTER:                  -8.492
REMARK INTRA:                  -0.680
REMARK UNBOUND:                -2.254
REMARK SMILES O=C([O-])c1ccc(-n2cc(CNc3cccc(Br)c3)c(-c3ccc(F)cc3)n2)cc1
REMARK SMILES IDX 28 1 20 2 10 3 9 4 8 5 7 6 4 7 5 8 30 9 6 10 29 11 2 12 1 13
REMARK SMILES IDX 3 14 21 15 27 16 22 17 26 18 23 19 24 20 25 21 11 22 12 23
REMARK SMILES IDX 13 25 19 26 14 27 17 28 15 29 16 30 18 31
REMARK H PARENT 12 24
ROOT
ATOM      1  N   UNL     1       8.245  18.917  30.332  1.00  0.00    -0.168 NA
ATOM      2  C   UNL     1       9.243  19.729  29.936  1.00  0.00     0.098 A 
ATOM      3  C   UNL     1       8.848  20.481  28.789  1.00  0.00     0.018 A 
ATOM      4  C   UNL     1       7.610  19.982  28.452  1.00  0.00     0.121 A 
ATOM      5  N   UNL     1       7.254  19.075  29.415  1.00  0.00    -0.240 N 
ENDROOT
BRANCH   5   6
ATOM      6  C   UNL     1       6.003  18.406  29.531  1.00  0.00     0.065 A 
ATOM      7  C   UNL     1       3.541  17.037  29.594  1.00  0.00    -0.003 A 
ATOM      8  C   UNL     1       3.580  18.406  29.295  1.00  0.00     0.012 A 
ATOM      9  C   UNL     1       4.732  16.362  29.875  1.00  0.00     0.012 A 
ATOM     10  C   UNL     1       4.805  19.091  29.277  1.00  0.00     0.029 A 
ATOM     11  C   UNL     1       5.954  17.039  29.845  1.00  0.00     0.029 A 
BRANCH   7  12
ATOM     12  C   UNL     1       2.293  16.230  29.566  1.00  0.00     0.071 C 
ATOM     13  O   UNL     1       1.874  15.704  28.550  1.00  0.00    -0.545 OA
ATOM     14  O   UNL     1       1.688  16.100  30.763  1.00  0.00    -0.545 OA
ENDBRANCH   7  12
ENDBRANCH   5   6
BRANCH   2  15
ATOM     15  C   UNL     1      10.522  19.786  30.663  1.00  0.00     0.003 A 
ATOM     16  C   UNL     1      11.184  21.008  30.868  1.00  0.00     0.013 A 
ATOM     17  C   UNL     1      11.107  18.620  31.188  1.00  0.00     0.013 A 
ATOM     18  C   UNL     1      12.400  21.054  31.560  1.00  0.00     0.040 A 
ATOM     19  C   UNL     1      12.327  18.662  31.867  1.00  0.00     0.040 A 
ATOM     20  C   UNL     1      12.961  19.880  32.050  1.00  0.00     0.123 A 
ATOM     21  F   UNL     1      14.123  19.925  32.714  1.00  0.00    -0.207 F 
ENDBRANCH   2  15
BRANCH   3  22
ATOM     22  C   UNL     1       9.562  21.588  28.090  1.00  0.00     0.152 C 
BRANCH  22  23
ATOM     23  N   UNL     1       8.685  22.541  27.417  1.00  0.00    -0.381 N 
ATOM     24  H   UNL     1       8.419  23.380  27.859  1.00  0.00     0.160 HD
BRANCH  23  25
ATOM     25  C   UNL     1       8.228  22.236  26.129  1.00  0.00     0.035 A 
ATOM     26  C   UNL     1       6.866  22.394  25.843  1.00  0.00     0.041 A 
ATOM     27  C   UNL     1       9.036  21.642  25.151  1.00  0.00     0.026 A 
ATOM     28  C   UNL     1       6.355  22.053  24.589  1.00  0.00     0.020 A 
ATOM     29  C   UNL     1       8.525  21.298  23.896  1.00  0.00     0.003 A 
ATOM     30  C   UNL     1       7.183  21.514  23.609  1.00  0.00     0.016 A 
ATOM     31  Br  UNL     1       4.520  22.317  24.219  1.00  0.00    -0.051 Br
ENDBRANCH  23  25
ENDBRANCH  22  23
ENDBRANCH   3  22
TORSDOF 6
ENDMDL
MODEL 19
REMARK VINA RESULT:    -4.811      9.590     11.750
REMARK INTER + INTRA:          -8.752
REMARK INTER:                  -7.646
REMARK INTRA:                  -1.107
REMARK UNBOUND:                -2.254
REMARK SMILES O=C([O-])c1ccc(-n2cc(CNc3cccc(Br)c3)c(-c3ccc(F)cc3)n2)cc1
REMARK SMILES IDX 28 1 20 2 10 3 9 4 8 5 7 6 4 7 5 8 30 9 6 10 29 11 2 12 1 13
REMARK SMILES IDX 3 14 21 15 27 16 22 17 26 18 23 19 24 20 25 21 11 22 12 23
REMARK SMILES IDX 13 25 19 26 14 27 17 28 15 29 16 30 18 31
REMARK H PARENT 12 24
ROOT
ATOM      1  N   UNL     1       6.735  19.482  26.824  1.00  0.00    -0.168 NA
ATOM      2  C   UNL     1       6.468  20.592  26.110  1.00  0.00     0.098 A 
ATOM      3  C   UNL     1       5.069  20.868  26.122  1.00  0.00     0.018 A 
ATOM      4  C   UNL     1       4.505  19.796  26.775  1.00  0.00     0.121 A 
ATOM      5  N   UNL     1       5.527  19.000  27.221  1.00  0.00    -0.240 N 
ENDROOT
BRANCH   5   6
ATOM      6  C   UNL     1       5.408  17.849  28.050  1.00  0.00     0.065 A 
ATOM      7  C   UNL     1       5.324  15.515  29.625  1.00  0.00    -0.003 A 
ATOM      8  C   UNL     1       4.709  15.539  28.366  1.00  0.00     0.012 A 
ATOM      9  C   UNL     1       5.966  16.663  30.098  1.00  0.00     0.012 A 
ATOM     10  C   UNL     1       4.739  16.706  27.587  1.00  0.00     0.029 A 
ATOM     11  C   UNL     1       6.008  17.821  29.319  1.00  0.00     0.029 A 
BRANCH   7  12
ATOM     12  C   UNL     1       5.393  14.298  30.477  1.00  0.00     0.071 C 
ATOM     13  O   UNL     1       5.615  13.190  30.022  1.00  0.00    -0.545 OA
ATOM     14  O   UNL     1       5.228  14.531  31.794  1.00  0.00    -0.545 OA
ENDBRANCH   7  12
ENDBRANCH   5   6
BRANCH   2  15
ATOM     15  C   UNL     1       7.542  21.365  25.462  1.00  0.00     0.003 A 
ATOM     16  C   UNL     1       8.055  22.528  26.058  1.00  0.00     0.013 A 
ATOM     17  C   UNL     1       8.093  20.949  24.238  1.00  0.00     0.013 A 
ATOM     18  C   UNL     1       9.075  23.258  25.437  1.00  0.00     0.040 A 
ATOM     19  C   UNL     1       9.102  21.683  23.609  1.00  0.00     0.040 A 
ATOM     20  C   UNL     1       9.586  22.830  24.216  1.00  0.00     0.123 A 
ATOM     21  F   UNL     1      10.564  23.528  23.623  1.00  0.00    -0.207 F 
ENDBRANCH   2  15
BRANCH   3  22
ATOM     22  C   UNL     1       4.331  22.049  25.588  1.00  0.00     0.152 C 
BRANCH  22  23
ATOM     23  N   UNL     1       4.474  23.261  26.388  1.00  0.00    -0.381 N 
ATOM     24  H   UNL     1       4.751  24.109  25.972  1.00  0.00     0.160 HD
BRANCH  23  25
ATOM     25  C   UNL     1       4.207  23.192  27.761  1.00  0.00     0.035 A 
ATOM     26  C   UNL     1       5.228  22.776  28.625  1.00  0.00     0.041 A 
ATOM     27  C   UNL     1       2.928  23.378  28.303  1.00  0.00     0.026 A 
ATOM     28  C   UNL     1       4.994  22.640  29.995  1.00  0.00     0.020 A 
ATOM     29  C   UNL     1       2.692  23.239  29.674  1.00  0.00     0.003 A 
ATOM     30  C   UNL     1       3.730  22.882  30.526  1.00  0.00     0.016 A 
ATOM     31  Br  UNL     1       6.403  22.118  31.142  1.00  0.00    -0.051 Br
ENDBRANCH  23  25
ENDBRANCH  22  23
ENDBRANCH   3  22
TORSDOF 6
ENDMDL
MODEL 20
REMARK VINA RESULT:    -4.799      4.471      6.594
REMARK INTER + INTRA:          -8.736
REMARK INTER:                  -7.588
REMARK INTRA:                  -1.148
REMARK UNBOUND:                -2.254
REMARK SMILES O=C([O-])c1ccc(-n2cc(CNc3cccc(Br)c3)c(-c3ccc(F)cc3)n2)cc1
REMARK SMILES IDX 28 1 20 2 10 3 9 4 8 5 7 6 4 7 5 8 30 9 6 10 29 11 2 12 1 13
REMARK SMILES IDX 3 14 21 15 27 16 22 17 26 18 23 19 24 20 25 21 11 22 12 23
REMARK SMILES IDX 13 25 19 26 14 27 17 28 15 29 16 30 18 31
REMARK H PARENT 12 24
ROOT
ATOM      1  N   UNL     1      14.097  18.910  33.690  1.00  0.00    -0.168 NA
ATOM      2  C   UNL     1      14.418  18.319  34.856  1.00  0.00     0.098 A 
ATOM      3  C   UNL     1      15.490  19.016  35.490  1.00  0.00     0.018 A 
ATOM      4  C   UNL     1      15.870  19.976  34.580  1.00  0.00     0.121 A 
ATOM      5  N   UNL     1      14.994  19.918  33.528  1.00  0.00    -0.240 N 
ENDROOT
BRANCH   5   6
ATOM      6  C   UNL     1      14.938  20.809  32.419  1.00  0.00     0.065 A 
ATOM      7  C   UNL     1      14.820  22.433  30.120  1.00  0.00    -0.003 A 
ATOM      8  C   UNL     1      16.060  22.058  30.657  1.00  0.00     0.012 A 
ATOM      9  C   UNL     1      13.644  22.007  30.744  1.00  0.00     0.012 A 
ATOM     10  C   UNL     1      16.118  21.261  31.810  1.00  0.00     0.029 A 
ATOM     11  C   UNL     1      13.700  21.202  31.884  1.00  0.00     0.029 A 
BRANCH   7  12
ATOM     12  C   UNL     1      14.678  23.218  28.865  1.00  0.00     0.071 C 
ATOM     13  O   UNL     1      15.627  23.501  28.156  1.00  0.00    -0.545 OA
ATOM     14  O   UNL     1      13.408  23.552  28.559  1.00  0.00    -0.545 OA
ENDBRANCH   7  12
ENDBRANCH   5   6
BRANCH   2  15
ATOM     15  C   UNL     1      13.691  17.134  35.343  1.00  0.00     0.003 A 
ATOM     16  C   UNL     1      13.158  16.194  34.447  1.00  0.00     0.013 A 
ATOM     17  C   UNL     1      13.527  16.904  36.721  1.00  0.00     0.013 A 
ATOM     18  C   UNL     1      12.468  15.071  34.918  1.00  0.00     0.040 A 
ATOM     19  C   UNL     1      12.826  15.791  37.192  1.00  0.00     0.040 A 
ATOM     20  C   UNL     1      12.305  14.882  36.286  1.00  0.00     0.123 A 
ATOM     21  F   UNL     1      11.647  13.806  36.735  1.00  0.00    -0.207 F 
ENDBRANCH   2  15
BRANCH   3  22
ATOM     22  C   UNL     1      16.085  18.812  36.842  1.00  0.00     0.152 C 
BRANCH  22  23
ATOM     23  N   UNL     1      15.926  19.945  37.747  1.00  0.00    -0.381 N 
ATOM     24  H   UNL     1      16.711  20.443  38.073  1.00  0.00     0.160 HD
BRANCH  23  25
ATOM     25  C   UNL     1      14.634  20.310  38.144  1.00  0.00     0.035 A 
ATOM     26  C   UNL     1      14.031  21.419  37.536  1.00  0.00     0.041 A 
ATOM     27  C   UNL     1      13.966  19.712  39.221  1.00  0.00     0.026 A 
ATOM     28  C   UNL     1      12.766  21.853  37.936  1.00  0.00     0.020 A 
ATOM     29  C   UNL     1      12.700  20.148  39.624  1.00  0.00     0.003 A 
ATOM     30  C   UNL     1      12.091  21.213  38.972  1.00  0.00     0.016 A 
ATOM     31  Br  UNL     1      11.961  23.327  37.068  1.00  0.00    -0.051 Br
ENDBRANCH  23  25
ENDBRANCH  22  23
ENDBRANCH   3  22
TORSDOF 6
ENDMDL
