REMARK 999 siam chowdhury
REMARK 999 Computational and Medicinal Chemistry
REMARK 999 [Dr. Alam's Research Team] www.alamresearch.org
REMARK 999 Arkansas State University
REMARK 999 9sa23 ligand PDBQT (pH 7.4, MMFF94, Meeko)
REMARK 999 Created: 2026-09-27 01:51:55
REMARK SMILES O=C([O-])c1ccc(-n2cc(CNc3cccc(Br)c3)c(-c3ccc(F)cc3)n2)cc1
REMARK SMILES IDX 28 1 20 2 10 3 9 4 8 5 7 6 4 7 5 8 30 9 6 10 29 11 2 12 1 13
REMARK SMILES IDX 3 14 21 15 27 16 22 17 26 18 23 19 24 20 25 21 11 22 12 23
REMARK SMILES IDX 13 25 19 26 14 27 17 28 15 29 16 30 18 31
REMARK H PARENT 12 24
ROOT
ATOM      1  N   UNL     1       5.901   2.764  -4.869  1.00  0.00    -0.168 NA
ATOM      2  C   UNL     1       6.428   2.653  -6.103  1.00  0.00     0.098 A 
ATOM      3  C   UNL     1       6.179   1.353  -6.636  1.00  0.00     0.018 A 
ATOM      4  C   UNL     1       5.586   0.659  -5.606  1.00  0.00     0.121 A 
ATOM      5  N   UNL     1       5.394   1.538  -4.573  1.00  0.00    -0.240 N 
ENDROOT
BRANCH   5   6
ATOM      6  C   UNL     1       4.703   1.280  -3.355  1.00  0.00     0.065 A 
ATOM      7  C   UNL     1       3.187   0.797  -1.030  1.00  0.00    -0.003 A 
ATOM      8  C   UNL     1       3.665   2.086  -1.306  1.00  0.00     0.012 A 
ATOM      9  C   UNL     1       3.482  -0.248  -1.910  1.00  0.00     0.012 A 
ATOM     10  C   UNL     1       4.432   2.323  -2.457  1.00  0.00     0.029 A 
ATOM     11  C   UNL     1       4.234  -0.011  -3.063  1.00  0.00     0.029 A 
BRANCH   7  12
ATOM     12  C   UNL     1       2.313   0.482   0.131  1.00  0.00     0.071 C 
ATOM     13  O   UNL     1       1.500  -0.425   0.114  1.00  0.00    -0.545 OA
ATOM     14  O   UNL     1       2.525   1.258   1.213  1.00  0.00    -0.545 OA
ENDBRANCH   7  12
ENDBRANCH   5   6
BRANCH   2  15
ATOM     15  C   UNL     1       7.126   3.780  -6.745  1.00  0.00     0.003 A 
ATOM     16  C   UNL     1       6.747   5.107  -6.486  1.00  0.00     0.013 A 
ATOM     17  C   UNL     1       8.203   3.557  -7.621  1.00  0.00     0.013 A 
ATOM     18  C   UNL     1       7.415   6.173  -7.100  1.00  0.00     0.040 A 
ATOM     19  C   UNL     1       8.862   4.619  -8.246  1.00  0.00     0.040 A 
ATOM     20  C   UNL     1       8.464   5.918  -7.977  1.00  0.00     0.123 A 
ATOM     21  F   UNL     1       9.104   6.939  -8.562  1.00  0.00    -0.207 F 
ENDBRANCH   2  15
BRANCH   3  22
ATOM     22  C   UNL     1       6.452   0.821  -8.002  1.00  0.00     0.152 C 
BRANCH  22  23
ATOM     23  N   UNL     1       7.765   0.203  -8.157  1.00  0.00    -0.381 N 
ATOM     24  H   UNL     1       8.386   0.143  -7.395  1.00  0.00     0.160 HD
BRANCH  23  25
ATOM     25  C   UNL     1       8.123  -0.303  -9.412  1.00  0.00     0.035 A 
ATOM     26  C   UNL     1       9.121  -1.284  -9.483  1.00  0.00     0.041 A 
ATOM     27  C   UNL     1       7.639   0.224 -10.617  1.00  0.00     0.026 A 
ATOM     28  C   UNL     1       9.549  -1.780 -10.716  1.00  0.00     0.020 A 
ATOM     29  C   UNL     1       8.069  -0.270 -11.852  1.00  0.00     0.003 A 
ATOM     30  C   UNL     1       9.018  -1.284 -11.903  1.00  0.00     0.016 A 
ATOM     31  Br  UNL     1      10.867  -3.134 -10.777  1.00  0.00    -0.051 Br
ENDBRANCH  23  25
ENDBRANCH  22  23
ENDBRANCH   3  22
TORSDOF 6
