REMARK 999 siam chowdhury
REMARK 999 Computational and Medicinal Chemistry
REMARK 999 [Dr. Alam's Research Team] www.alamresearch.org
REMARK 999 Arkansas State University
REMARK 999 17sa23 ligand PDBQT (pH 7.4, MMFF94, Meeko)
REMARK 999 Created: 2026-09-25 02:20:26
REMARK SMILES O=C([O-])c1ccc(-n2cc(CNc3ccc(F)c(F)c3)c(-c3ccc(F)cc3)n2)cc1
REMARK SMILES IDX 29 1 21 2 10 3 9 4 8 5 7 6 4 7 31 8 5 9 30 10 6 11 2 12 1 13
REMARK SMILES IDX 3 14 22 15 28 16 23 17 27 18 24 19 25 20 26 21 11 22 12 23
REMARK SMILES IDX 13 25 20 26 14 27 18 28 15 29 16 30 19 31 17 32
REMARK H PARENT 12 24
ROOT
ATOM      1  N   UNL     1       5.763  -0.225   5.631  1.00  0.00    -0.168 NA
ATOM      2  C   UNL     1       6.258   0.391   6.720  1.00  0.00     0.098 A 
ATOM      3  C   UNL     1       5.896   1.771   6.721  1.00  0.00     0.018 A 
ATOM      4  C   UNL     1       5.237   1.961   5.527  1.00  0.00     0.121 A 
ATOM      5  N   UNL     1       5.155   0.742   4.903  1.00  0.00    -0.240 N 
ENDROOT
BRANCH   5   6
ATOM      6  C   UNL     1       4.500   0.459   3.668  1.00  0.00     0.065 A 
ATOM      7  C   UNL     1       3.138  -0.112   1.278  1.00  0.00    -0.003 A 
ATOM      8  C   UNL     1       3.239   1.207   1.725  1.00  0.00     0.012 A 
ATOM      9  C   UNL     1       3.707  -1.148   2.029  1.00  0.00     0.012 A 
ATOM     10  C   UNL     1       3.925   1.492   2.909  1.00  0.00     0.029 A 
ATOM     11  C   UNL     1       4.395  -0.864   3.216  1.00  0.00     0.029 A 
BRANCH   7  12
ATOM     12  C   UNL     1       2.383  -0.455   0.048  1.00  0.00     0.071 C 
ATOM     13  O   UNL     1       1.740  -1.484  -0.071  1.00  0.00    -0.545 OA
ATOM     14  O   UNL     1       2.498   0.467  -0.931  1.00  0.00    -0.545 OA
ENDBRANCH   7  12
ENDBRANCH   5   6
BRANCH   2  15
ATOM     15  C   UNL     1       7.032  -0.349   7.729  1.00  0.00     0.003 A 
ATOM     16  C   UNL     1       6.734  -1.691   8.016  1.00  0.00     0.013 A 
ATOM     17  C   UNL     1       8.088   0.263   8.426  1.00  0.00     0.013 A 
ATOM     18  C   UNL     1       7.455  -2.390   8.991  1.00  0.00     0.040 A 
ATOM     19  C   UNL     1       8.800  -0.430   9.408  1.00  0.00     0.040 A 
ATOM     20  C   UNL     1       8.476  -1.751   9.682  1.00  0.00     0.123 A 
ATOM     21  F   UNL     1       9.163  -2.418  10.619  1.00  0.00    -0.207 F 
ENDBRANCH   2  15
BRANCH   3  22
ATOM     22  C   UNL     1       6.141   2.815   7.758  1.00  0.00     0.152 C 
BRANCH  22  23
ATOM     23  N   UNL     1       7.373   3.571   7.549  1.00  0.00    -0.381 N 
ATOM     24  H   UNL     1       7.954   3.370   6.779  1.00  0.00     0.160 HD
BRANCH  23  25
ATOM     25  C   UNL     1       7.720   4.581   8.448  1.00  0.00     0.037 A 
ATOM     26  C   UNL     1       7.366   4.558   9.802  1.00  0.00     0.068 A 
ATOM     27  C   UNL     1       8.587   5.598   8.012  1.00  0.00     0.029 A 
ATOM     28  C   UNL     1       7.806   5.558  10.665  1.00  0.00     0.160 A 
ATOM     29  C   UNL     1       9.025   6.603   8.879  1.00  0.00     0.044 A 
ATOM     30  C   UNL     1       8.624   6.580  10.206  1.00  0.00     0.158 A 
ATOM     31  F   UNL     1       7.439   5.517  11.956  1.00  0.00    -0.204 F 
ATOM     32  F   UNL     1       9.043   7.540  11.040  1.00  0.00    -0.204 F 
ENDBRANCH  23  25
ENDBRANCH  22  23
ENDBRANCH   3  22
TORSDOF 6
