REMARK 999 siam chowdhury
REMARK 999 Computational and Medicinal Chemistry
REMARK 999 [Dr. Alam's Research Team] www.alamresearch.org
REMARK 999 Arkansas State University
REMARK 999 25sa23 ligand PDBQT (pH 7.4, MMFF94, Meeko)
REMARK 999 Created: 2026-09-27 10:54:34
REMARK SMILES O=C([O-])c1ccc(-n2cc(CNc3cc(F)cc(C(F)(F)F)c3)c(-c3ccc(F)cc3)n2)cc1
REMARK SMILES IDX 11 1 10 2 8 3 32 4 9 5 24 6 7 7 4 8 5 9 34 10 6 11 33 12
REMARK SMILES IDX 2 13 1 14 3 15 25 16 31 17 26 18 30 19 27 20 28 21 29 22
REMARK SMILES IDX 12 23 13 25 23 26 14 27 18 28 15 29 17 30 16 31 19 32 20 33
REMARK SMILES IDX 21 34 22 35
REMARK H PARENT 12 24
ROOT
ATOM      1  C   UNL     1       6.111   8.222  -0.867  1.00  0.00     0.152 C 
ENDROOT
BRANCH   1   2
ATOM      2  C   UNL     1       5.904   6.979  -0.070  1.00  0.00     0.018 A 
ATOM      3  N   UNL     1       5.204   4.969   0.544  1.00  0.00    -0.240 N 
ATOM      4  N   UNL     1       5.758   5.504   1.661  1.00  0.00    -0.168 NA
ATOM      5  C   UNL     1       5.311   5.823  -0.524  1.00  0.00     0.121 A 
ATOM      6  C   UNL     1       6.222   6.714   1.295  1.00  0.00     0.098 A 
BRANCH   3   7
ATOM      7  C   UNL     1       4.547   3.703   0.556  1.00  0.00     0.065 A 
ATOM      8  C   UNL     1       3.096   1.291   0.613  1.00  0.00    -0.003 A 
ATOM      9  C   UNL     1       3.650   1.809   1.791  1.00  0.00     0.012 A 
ATOM     10  C   UNL     1       3.285   1.973  -0.593  1.00  0.00     0.012 A 
ATOM     11  C   UNL     1       4.386   3.004   1.760  1.00  0.00     0.029 A 
ATOM     12  C   UNL     1       4.008   3.169  -0.624  1.00  0.00     0.029 A 
BRANCH   8  13
ATOM     13  C   UNL     1       2.245   0.071   0.578  1.00  0.00     0.071 C 
ATOM     14  O   UNL     1       1.380  -0.102  -0.264  1.00  0.00    -0.545 OA
ATOM     15  O   UNL     1       2.533  -0.838   1.531  1.00  0.00    -0.545 OA
ENDBRANCH   8  13
ENDBRANCH   3   7
BRANCH   6  16
ATOM     16  C   UNL     1       6.920   7.590   2.250  1.00  0.00     0.003 A 
ATOM     17  C   UNL     1       6.568   7.597   3.609  1.00  0.00     0.013 A 
ATOM     18  C   UNL     1       7.952   8.445   1.824  1.00  0.00     0.013 A 
ATOM     19  C   UNL     1       7.214   8.453   4.509  1.00  0.00     0.040 A 
ATOM     20  C   UNL     1       8.588   9.310   2.718  1.00  0.00     0.040 A 
ATOM     21  C   UNL     1       8.214   9.306   4.053  1.00  0.00     0.123 A 
ATOM     22  F   UNL     1       8.827  10.130   4.913  1.00  0.00    -0.207 F 
ENDBRANCH   6  16
ENDBRANCH   1   2
BRANCH   1  23
ATOM     23  N   UNL     1       7.378   8.264  -1.594  1.00  0.00    -0.381 N 
ATOM     24  H   UNL     1       8.009   7.511  -1.545  1.00  0.00     0.160 HD
BRANCH  23  25
ATOM     25  C   UNL     1       7.676   9.395  -2.360  1.00  0.00     0.038 A 
ATOM     26  C   UNL     1       8.605   9.275  -3.405  1.00  0.00     0.039 A 
ATOM     27  C   UNL     1       7.206  10.674  -2.051  1.00  0.00     0.065 A 
ATOM     28  C   UNL     1       8.995  10.383  -4.182  1.00  0.00     0.060 A 
ATOM     29  C   UNL     1       7.591  11.774  -2.811  1.00  0.00     0.125 A 
ATOM     30  C   UNL     1       8.469  11.641  -3.875  1.00  0.00     0.052 A 
ATOM     31  F   UNL     1       7.109  12.984  -2.502  1.00  0.00    -0.207 F 
BRANCH  28  32
ATOM     32  C   UNL     1       9.965  10.202  -5.320  1.00  0.00     0.416 C 
ATOM     33  F   UNL     1      10.236  11.355  -5.992  1.00  0.00    -0.166 F 
ATOM     34  F   UNL     1      11.167   9.715  -4.909  1.00  0.00    -0.166 F 
ATOM     35  F   UNL     1       9.505   9.325  -6.255  1.00  0.00    -0.166 F 
ENDBRANCH  28  32
ENDBRANCH  23  25
ENDBRANCH   1  23
TORSDOF 7
