REMARK 999 siam chowdhury
REMARK 999 Computational and Medicinal Chemistry
REMARK 999 [Dr. Alam's Research Team] www.alamresearch.org
REMARK 999 Arkansas State University
REMARK 999 5sa23 Vina docking output (7L00 FabK)
REMARK 999 Created: 2026-09-25 02:09:58
MODEL 1
REMARK VINA RESULT:    -9.122      0.000      0.000
REMARK INTER + INTRA:         -14.032
REMARK INTER:                 -12.322
REMARK INTRA:                  -1.710
REMARK UNBOUND:                -1.710
REMARK SMILES O=C([O-])c1ccc(-n2cc(CNc3cccc(F)c3)c(-c3ccc(F)cc3)n2)cc1
REMARK SMILES IDX 8 1 9 2 10 3 20 4 28 5 7 6 4 7 30 8 5 9 29 10 6 11 2 12 1 13
REMARK SMILES IDX 3 14 11 15 12 16 13 18 14 19 19 20 15 21 17 22 16 23 18 24
REMARK SMILES IDX 21 25 27 26 22 27 26 28 23 29 24 30 25 31
REMARK H PARENT 12 17
ROOT
ATOM      1  N   UNL     1      14.701  19.427  37.778  1.00  0.00    -0.240 N 
ATOM      2  C   UNL     1      15.573  20.486  37.764  1.00  0.00     0.121 A 
ATOM      3  C   UNL     1      15.035  21.479  38.559  1.00  0.00     0.018 A 
ATOM      4  C   UNL     1      13.822  20.915  39.063  1.00  0.00     0.098 A 
ATOM      5  N   UNL     1      13.613  19.698  38.536  1.00  0.00    -0.168 NA
ENDROOT
BRANCH   1   6
ATOM      6  C   UNL     1      14.851  18.169  37.119  1.00  0.00     0.065 A 
ATOM      7  C   UNL     1      15.133  15.700  35.794  1.00  0.00    -0.003 A 
ATOM      8  C   UNL     1      15.488  15.819  37.142  1.00  0.00     0.012 A 
ATOM      9  C   UNL     1      14.656  16.821  35.104  1.00  0.00     0.012 A 
ATOM     10  C   UNL     1      15.343  17.046  37.804  1.00  0.00     0.029 A 
ATOM     11  C   UNL     1      14.509  18.048  35.764  1.00  0.00     0.029 A 
BRANCH   7  12
ATOM     12  C   UNL     1      15.295  14.429  35.043  1.00  0.00     0.071 C 
ATOM     13  O   UNL     1      14.631  14.153  34.056  1.00  0.00    -0.545 OA
ATOM     14  O   UNL     1      16.218  13.590  35.560  1.00  0.00    -0.545 OA
ENDBRANCH   7  12
ENDBRANCH   1   6
BRANCH   3  15
ATOM     15  C   UNL     1      15.637  22.826  38.820  1.00  0.00     0.152 C 
BRANCH  15  16
ATOM     16  N   UNL     1      15.501  23.763  37.702  1.00  0.00    -0.381 N 
ATOM     17  H   UNL     1      16.300  24.100  37.236  1.00  0.00     0.160 HD
BRANCH  16  18
ATOM     18  C   UNL     1      14.224  24.172  37.304  1.00  0.00     0.037 A 
ATOM     19  C   UNL     1      13.612  23.521  36.220  1.00  0.00     0.026 A 
ATOM     20  C   UNL     1      13.484  25.141  37.987  1.00  0.00     0.065 A 
ATOM     21  C   UNL     1      12.325  23.866  35.791  1.00  0.00     0.005 A 
ATOM     22  C   UNL     1      12.200  25.476  37.561  1.00  0.00     0.125 A 
ATOM     23  C   UNL     1      11.615  24.852  36.466  1.00  0.00     0.039 A 
ATOM     24  F   UNL     1      11.510  26.413  38.226  1.00  0.00    -0.207 F 
ENDBRANCH  16  18
ENDBRANCH  15  16
ENDBRANCH   3  15
BRANCH   4  25
ATOM     25  C   UNL     1      12.866  21.485  40.028  1.00  0.00     0.003 A 
ATOM     26  C   UNL     1      13.090  21.384  41.410  1.00  0.00     0.013 A 
ATOM     27  C   UNL     1      11.722  22.175  39.595  1.00  0.00     0.013 A 
ATOM     28  C   UNL     1      12.184  21.935  42.322  1.00  0.00     0.040 A 
ATOM     29  C   UNL     1      10.805  22.710  40.502  1.00  0.00     0.040 A 
ATOM     30  C   UNL     1      11.047  22.587  41.860  1.00  0.00     0.123 A 
ATOM     31  F   UNL     1      10.177  23.113  42.733  1.00  0.00    -0.207 F 
ENDBRANCH   4  25
TORSDOF 6
ENDMDL
MODEL 2
REMARK VINA RESULT:    -8.929      0.844      1.482
REMARK INTER + INTRA:         -13.771
REMARK INTER:                 -12.058
REMARK INTRA:                  -1.712
REMARK UNBOUND:                -1.710
REMARK SMILES O=C([O-])c1ccc(-n2cc(CNc3cccc(F)c3)c(-c3ccc(F)cc3)n2)cc1
REMARK SMILES IDX 8 1 9 2 10 3 20 4 28 5 7 6 4 7 30 8 5 9 29 10 6 11 2 12 1 13
REMARK SMILES IDX 3 14 11 15 12 16 13 18 14 19 19 20 15 21 17 22 16 23 18 24
REMARK SMILES IDX 21 25 27 26 22 27 26 28 23 29 24 30 25 31
REMARK H PARENT 12 17
ROOT
ATOM      1  N   UNL     1      14.814  19.401  37.766  1.00  0.00    -0.240 N 
ATOM      2  C   UNL     1      15.722  20.428  37.797  1.00  0.00     0.121 A 
ATOM      3  C   UNL     1      15.205  21.417  38.609  1.00  0.00     0.018 A 
ATOM      4  C   UNL     1      13.963  20.885  39.075  1.00  0.00     0.098 A 
ATOM      5  N   UNL     1      13.720  19.691  38.510  1.00  0.00    -0.168 NA
ENDROOT
BRANCH   1   6
ATOM      6  C   UNL     1      14.931  18.157  37.076  1.00  0.00     0.065 A 
ATOM      7  C   UNL     1      15.182  15.692  35.735  1.00  0.00    -0.003 A 
ATOM      8  C   UNL     1      14.468  16.742  35.148  1.00  0.00     0.012 A 
ATOM      9  C   UNL     1      15.753  15.869  37.001  1.00  0.00     0.012 A 
ATOM     10  C   UNL     1      14.347  17.971  35.812  1.00  0.00     0.029 A 
ATOM     11  C   UNL     1      15.635  17.096  37.667  1.00  0.00     0.029 A 
BRANCH   7  12
ATOM     12  C   UNL     1      15.313  14.363  35.084  1.00  0.00     0.071 C 
ATOM     13  O   UNL     1      14.602  14.006  34.158  1.00  0.00    -0.545 OA
ATOM     14  O   UNL     1      16.265  13.571  35.622  1.00  0.00    -0.545 OA
ENDBRANCH   7  12
ENDBRANCH   1   6
BRANCH   3  15
ATOM     15  C   UNL     1      15.850  22.734  38.919  1.00  0.00     0.152 C 
BRANCH  15  16
ATOM     16  N   UNL     1      15.806  23.691  37.811  1.00  0.00    -0.381 N 
ATOM     17  H   UNL     1      16.632  23.948  37.341  1.00  0.00     0.160 HD
BRANCH  16  18
ATOM     18  C   UNL     1      14.576  24.236  37.426  1.00  0.00     0.037 A 
ATOM     19  C   UNL     1      13.864  25.020  38.350  1.00  0.00     0.026 A 
ATOM     20  C   UNL     1      14.056  24.113  36.134  1.00  0.00     0.065 A 
ATOM     21  C   UNL     1      12.641  25.613  38.016  1.00  0.00     0.005 A 
ATOM     22  C   UNL     1      12.842  24.713  35.804  1.00  0.00     0.125 A 
ATOM     23  C   UNL     1      12.127  25.458  36.734  1.00  0.00     0.039 A 
ATOM     24  F   UNL     1      12.357  24.577  34.562  1.00  0.00    -0.207 F 
ENDBRANCH  16  18
ENDBRANCH  15  16
ENDBRANCH   3  15
BRANCH   4  25
ATOM     25  C   UNL     1      13.009  21.464  40.036  1.00  0.00     0.003 A 
ATOM     26  C   UNL     1      13.222  21.350  41.419  1.00  0.00     0.013 A 
ATOM     27  C   UNL     1      11.879  22.174  39.600  1.00  0.00     0.013 A 
ATOM     28  C   UNL     1      12.318  21.910  42.329  1.00  0.00     0.040 A 
ATOM     29  C   UNL     1      10.964  22.717  40.504  1.00  0.00     0.040 A 
ATOM     30  C   UNL     1      11.194  22.581  41.863  1.00  0.00     0.123 A 
ATOM     31  F   UNL     1      10.326  23.115  42.733  1.00  0.00    -0.207 F 
ENDBRANCH   4  25
TORSDOF 6
ENDMDL
MODEL 3
REMARK VINA RESULT:    -8.314      5.742      8.447
REMARK INTER + INTRA:         -12.941
REMARK INTER:                 -11.383
REMARK INTRA:                  -1.558
REMARK UNBOUND:                -1.710
REMARK SMILES O=C([O-])c1ccc(-n2cc(CNc3cccc(F)c3)c(-c3ccc(F)cc3)n2)cc1
REMARK SMILES IDX 8 1 9 2 10 3 20 4 28 5 7 6 4 7 30 8 5 9 29 10 6 11 2 12 1 13
REMARK SMILES IDX 3 14 11 15 12 16 13 18 14 19 19 20 15 21 17 22 16 23 18 24
REMARK SMILES IDX 21 25 27 26 22 27 26 28 23 29 24 30 25 31
REMARK H PARENT 12 17
ROOT
ATOM      1  N   UNL     1      11.839  15.510  33.872  1.00  0.00    -0.240 N 
ATOM      2  C   UNL     1      12.729  14.705  34.537  1.00  0.00     0.121 A 
ATOM      3  C   UNL     1      13.914  15.402  34.655  1.00  0.00     0.018 A 
ATOM      4  C   UNL     1      13.646  16.671  34.054  1.00  0.00     0.098 A 
ATOM      5  N   UNL     1      12.405  16.694  33.539  1.00  0.00    -0.168 NA
ENDROOT
BRANCH   1   6
ATOM      6  C   UNL     1      10.481  15.220  33.544  1.00  0.00     0.065 A 
ATOM      7  C   UNL     1       7.794  14.641  32.926  1.00  0.00    -0.003 A 
ATOM      8  C   UNL     1       8.697  14.960  31.906  1.00  0.00     0.012 A 
ATOM      9  C   UNL     1       8.231  14.630  34.256  1.00  0.00     0.012 A 
ATOM     10  C   UNL     1      10.036  15.243  32.212  1.00  0.00     0.029 A 
ATOM     11  C   UNL     1       9.569  14.912  34.565  1.00  0.00     0.029 A 
BRANCH   7  12
ATOM     12  C   UNL     1       6.361  14.361  32.654  1.00  0.00     0.071 C 
ATOM     13  O   UNL     1       5.923  14.181  31.529  1.00  0.00    -0.545 OA
ATOM     14  O   UNL     1       5.578  14.351  33.754  1.00  0.00    -0.545 OA
ENDBRANCH   7  12
ENDBRANCH   1   6
BRANCH   3  15
ATOM     15  C   UNL     1      15.173  14.904  35.298  1.00  0.00     0.152 C 
BRANCH  15  16
ATOM     16  N   UNL     1      15.068  14.727  36.748  1.00  0.00    -0.381 N 
ATOM     17  H   UNL     1      14.789  13.861  37.125  1.00  0.00     0.160 HD
BRANCH  16  18
ATOM     18  C   UNL     1      15.369  15.802  37.592  1.00  0.00     0.037 A 
ATOM     19  C   UNL     1      14.314  16.577  38.103  1.00  0.00     0.026 A 
ATOM     20  C   UNL     1      16.665  16.094  38.025  1.00  0.00     0.065 A 
ATOM     21  C   UNL     1      14.549  17.648  38.973  1.00  0.00     0.005 A 
ATOM     22  C   UNL     1      16.893  17.157  38.898  1.00  0.00     0.125 A 
ATOM     23  C   UNL     1      15.848  17.940  39.371  1.00  0.00     0.039 A 
ATOM     24  F   UNL     1      18.145  17.424  39.295  1.00  0.00    -0.207 F 
ENDBRANCH  16  18
ENDBRANCH  15  16
ENDBRANCH   3  15
BRANCH   4  25
ATOM     25  C   UNL     1      14.516  17.855  33.959  1.00  0.00     0.003 A 
ATOM     26  C   UNL     1      15.004  18.292  32.718  1.00  0.00     0.013 A 
ATOM     27  C   UNL     1      14.854  18.600  35.100  1.00  0.00     0.013 A 
ATOM     28  C   UNL     1      15.823  19.424  32.632  1.00  0.00     0.040 A 
ATOM     29  C   UNL     1      15.687  19.718  35.021  1.00  0.00     0.040 A 
ATOM     30  C   UNL     1      16.163  20.122  33.785  1.00  0.00     0.123 A 
ATOM     31  F   UNL     1      16.948  21.204  33.704  1.00  0.00    -0.207 F 
ENDBRANCH   4  25
TORSDOF 6
ENDMDL
MODEL 4
REMARK VINA RESULT:    -7.668      5.057      8.535
REMARK INTER + INTRA:         -12.068
REMARK INTER:                 -10.971
REMARK INTRA:                  -1.096
REMARK UNBOUND:                -1.710
REMARK SMILES O=C([O-])c1ccc(-n2cc(CNc3cccc(F)c3)c(-c3ccc(F)cc3)n2)cc1
REMARK SMILES IDX 8 1 9 2 10 3 20 4 28 5 7 6 4 7 30 8 5 9 29 10 6 11 2 12 1 13
REMARK SMILES IDX 3 14 11 15 12 16 13 18 14 19 19 20 15 21 17 22 16 23 18 24
REMARK SMILES IDX 21 25 27 26 22 27 26 28 23 29 24 30 25 31
REMARK H PARENT 12 17
ROOT
ATOM      1  N   UNL     1      14.607  20.340  36.990  1.00  0.00    -0.240 N 
ATOM      2  C   UNL     1      14.192  19.396  36.085  1.00  0.00     0.121 A 
ATOM      3  C   UNL     1      14.952  18.262  36.287  1.00  0.00     0.018 A 
ATOM      4  C   UNL     1      15.803  18.592  37.388  1.00  0.00     0.098 A 
ATOM      5  N   UNL     1      15.616  19.869  37.760  1.00  0.00    -0.168 NA
ENDROOT
BRANCH   1   6
ATOM      6  C   UNL     1      14.091  21.658  37.169  1.00  0.00     0.065 A 
ATOM      7  C   UNL     1      13.087  24.263  37.549  1.00  0.00    -0.003 A 
ATOM      8  C   UNL     1      12.653  23.494  36.464  1.00  0.00     0.012 A 
ATOM      9  C   UNL     1      14.038  23.736  38.432  1.00  0.00     0.012 A 
ATOM     10  C   UNL     1      13.148  22.195  36.278  1.00  0.00     0.029 A 
ATOM     11  C   UNL     1      14.533  22.439  38.249  1.00  0.00     0.029 A 
BRANCH   7  12
ATOM     12  C   UNL     1      12.614  25.653  37.773  1.00  0.00     0.071 C 
ATOM     13  O   UNL     1      11.468  26.008  37.542  1.00  0.00    -0.545 OA
ATOM     14  O   UNL     1      13.564  26.498  38.226  1.00  0.00    -0.545 OA
ENDBRANCH   7  12
ENDBRANCH   1   6
BRANCH   3  15
ATOM     15  C   UNL     1      14.857  16.983  35.512  1.00  0.00     0.152 C 
BRANCH  15  16
ATOM     16  N   UNL     1      14.028  15.960  36.155  1.00  0.00    -0.381 N 
ATOM     17  H   UNL     1      14.333  15.519  36.981  1.00  0.00     0.160 HD
BRANCH  16  18
ATOM     18  C   UNL     1      12.797  15.619  35.584  1.00  0.00     0.037 A 
ATOM     19  C   UNL     1      12.686  15.590  34.183  1.00  0.00     0.026 A 
ATOM     20  C   UNL     1      11.690  15.219  36.337  1.00  0.00     0.065 A 
ATOM     21  C   UNL     1      11.490  15.231  33.552  1.00  0.00     0.005 A 
ATOM     22  C   UNL     1      10.503  14.854  35.703  1.00  0.00     0.125 A 
ATOM     23  C   UNL     1      10.390  14.861  34.318  1.00  0.00     0.039 A 
ATOM     24  F   UNL     1       9.450  14.480  36.444  1.00  0.00    -0.207 F 
ENDBRANCH  16  18
ENDBRANCH  15  16
ENDBRANCH   3  15
BRANCH   4  25
ATOM     25  C   UNL     1      16.774  17.742  38.097  1.00  0.00     0.003 A 
ATOM     26  C   UNL     1      18.152  17.877  37.867  1.00  0.00     0.013 A 
ATOM     27  C   UNL     1      16.353  16.799  39.048  1.00  0.00     0.013 A 
ATOM     28  C   UNL     1      19.071  17.073  38.551  1.00  0.00     0.040 A 
ATOM     29  C   UNL     1      17.266  15.982  39.719  1.00  0.00     0.040 A 
ATOM     30  C   UNL     1      18.620  16.129  39.464  1.00  0.00     0.123 A 
ATOM     31  F   UNL     1      19.498  15.357  40.118  1.00  0.00    -0.207 F 
ENDBRANCH   4  25
TORSDOF 6
ENDMDL
MODEL 5
REMARK VINA RESULT:    -7.591      1.944      3.869
REMARK INTER + INTRA:         -11.964
REMARK INTER:                  -9.637
REMARK INTRA:                  -2.327
REMARK UNBOUND:                -1.710
REMARK SMILES O=C([O-])c1ccc(-n2cc(CNc3cccc(F)c3)c(-c3ccc(F)cc3)n2)cc1
REMARK SMILES IDX 8 1 9 2 10 3 20 4 28 5 7 6 4 7 30 8 5 9 29 10 6 11 2 12 1 13
REMARK SMILES IDX 3 14 11 15 12 16 13 18 14 19 19 20 15 21 17 22 16 23 18 24
REMARK SMILES IDX 21 25 27 26 22 27 26 28 23 29 24 30 25 31
REMARK H PARENT 12 17
ROOT
ATOM      1  N   UNL     1      14.991  19.752  36.632  1.00  0.00    -0.240 N 
ATOM      2  C   UNL     1      15.238  20.312  37.860  1.00  0.00     0.121 A 
ATOM      3  C   UNL     1      15.003  21.667  37.755  1.00  0.00     0.018 A 
ATOM      4  C   UNL     1      14.568  21.853  36.406  1.00  0.00     0.098 A 
ATOM      5  N   UNL     1      14.621  20.693  35.731  1.00  0.00    -0.168 NA
ENDROOT
BRANCH   1   6
ATOM      6  C   UNL     1      15.078  18.374  36.271  1.00  0.00     0.065 A 
ATOM      7  C   UNL     1      15.231  15.659  35.535  1.00  0.00    -0.003 A 
ATOM      8  C   UNL     1      15.808  16.097  36.731  1.00  0.00     0.012 A 
ATOM      9  C   UNL     1      14.595  16.583  34.697  1.00  0.00     0.012 A 
ATOM     10  C   UNL     1      15.728  17.446  37.101  1.00  0.00     0.029 A 
ATOM     11  C   UNL     1      14.512  17.933  35.065  1.00  0.00     0.029 A 
BRANCH   7  12
ATOM     12  C   UNL     1      15.315  14.246  35.087  1.00  0.00     0.071 C 
ATOM     13  O   UNL     1      16.142  13.460  35.523  1.00  0.00    -0.545 OA
ATOM     14  O   UNL     1      14.419  13.909  34.135  1.00  0.00    -0.545 OA
ENDBRANCH   7  12
ENDBRANCH   1   6
BRANCH   3  15
ATOM     15  C   UNL     1      15.163  22.680  38.848  1.00  0.00     0.152 C 
BRANCH  15  16
ATOM     16  N   UNL     1      13.921  22.980  39.565  1.00  0.00    -0.381 N 
ATOM     17  H   UNL     1      13.713  22.525  40.412  1.00  0.00     0.160 HD
BRANCH  16  18
ATOM     18  C   UNL     1      13.035  23.923  39.032  1.00  0.00     0.037 A 
ATOM     19  C   UNL     1      13.546  25.147  38.569  1.00  0.00     0.026 A 
ATOM     20  C   UNL     1      11.671  23.674  38.854  1.00  0.00     0.065 A 
ATOM     21  C   UNL     1      12.714  26.119  38.001  1.00  0.00     0.005 A 
ATOM     22  C   UNL     1      10.848  24.642  38.280  1.00  0.00     0.125 A 
ATOM     23  C   UNL     1      11.355  25.864  37.857  1.00  0.00     0.039 A 
ATOM     24  F   UNL     1       9.542  24.386  38.126  1.00  0.00    -0.207 F 
ENDBRANCH  16  18
ENDBRANCH  15  16
ENDBRANCH   3  15
BRANCH   4  25
ATOM     25  C   UNL     1      14.099  23.081  35.743  1.00  0.00     0.003 A 
ATOM     26  C   UNL     1      14.993  24.120  35.437  1.00  0.00     0.013 A 
ATOM     27  C   UNL     1      12.755  23.236  35.367  1.00  0.00     0.013 A 
ATOM     28  C   UNL     1      14.545  25.281  34.798  1.00  0.00     0.040 A 
ATOM     29  C   UNL     1      12.300  24.401  34.747  1.00  0.00     0.040 A 
ATOM     30  C   UNL     1      13.202  25.414  34.466  1.00  0.00     0.123 A 
ATOM     31  F   UNL     1      12.771  26.527  33.857  1.00  0.00    -0.207 F 
ENDBRANCH   4  25
TORSDOF 6
ENDMDL
MODEL 6
REMARK VINA RESULT:    -7.507      5.193      8.761
REMARK INTER + INTRA:         -11.850
REMARK INTER:                 -10.898
REMARK INTRA:                  -0.952
REMARK UNBOUND:                -1.710
REMARK SMILES O=C([O-])c1ccc(-n2cc(CNc3cccc(F)c3)c(-c3ccc(F)cc3)n2)cc1
REMARK SMILES IDX 8 1 9 2 10 3 20 4 28 5 7 6 4 7 30 8 5 9 29 10 6 11 2 12 1 13
REMARK SMILES IDX 3 14 11 15 12 16 13 18 14 19 19 20 15 21 17 22 16 23 18 24
REMARK SMILES IDX 21 25 27 26 22 27 26 28 23 29 24 30 25 31
REMARK H PARENT 12 17
ROOT
ATOM      1  N   UNL     1      13.847  18.930  37.419  1.00  0.00    -0.240 N 
ATOM      2  C   UNL     1      13.871  17.585  37.146  1.00  0.00     0.121 A 
ATOM      3  C   UNL     1      14.408  17.426  35.885  1.00  0.00     0.018 A 
ATOM      4  C   UNL     1      14.728  18.753  35.461  1.00  0.00     0.098 A 
ATOM      5  N   UNL     1      14.331  19.649  36.379  1.00  0.00    -0.168 NA
ENDROOT
BRANCH   1   6
ATOM      6  C   UNL     1      13.399  19.566  38.616  1.00  0.00     0.065 A 
ATOM      7  C   UNL     1      12.497  20.839  40.961  1.00  0.00    -0.003 A 
ATOM      8  C   UNL     1      13.515  19.883  41.028  1.00  0.00     0.012 A 
ATOM      9  C   UNL     1      11.917  21.144  39.724  1.00  0.00     0.012 A 
ATOM     10  C   UNL     1      13.969  19.252  39.861  1.00  0.00     0.029 A 
ATOM     11  C   UNL     1      12.369  20.517  38.555  1.00  0.00     0.029 A 
BRANCH   7  12
ATOM     12  C   UNL     1      11.964  21.513  42.172  1.00  0.00     0.071 C 
ATOM     13  O   UNL     1      12.548  22.427  42.733  1.00  0.00    -0.545 OA
ATOM     14  O   UNL     1      10.793  21.011  42.619  1.00  0.00    -0.545 OA
ENDBRANCH   7  12
ENDBRANCH   1   6
BRANCH   3  15
ATOM     15  C   UNL     1      14.609  16.126  35.166  1.00  0.00     0.152 C 
BRANCH  15  16
ATOM     16  N   UNL     1      13.782  15.031  35.679  1.00  0.00    -0.381 N 
ATOM     17  H   UNL     1      14.160  14.371  36.303  1.00  0.00     0.160 HD
BRANCH  16  18
ATOM     18  C   UNL     1      12.446  14.935  35.273  1.00  0.00     0.037 A 
ATOM     19  C   UNL     1      11.440  14.909  36.253  1.00  0.00     0.026 A 
ATOM     20  C   UNL     1      12.052  14.952  33.932  1.00  0.00     0.065 A 
ATOM     21  C   UNL     1      10.085  14.841  35.909  1.00  0.00     0.005 A 
ATOM     22  C   UNL     1      10.701  14.893  33.594  1.00  0.00     0.125 A 
ATOM     23  C   UNL     1       9.714  14.832  34.570  1.00  0.00     0.039 A 
ATOM     24  F   UNL     1      10.345  14.903  32.302  1.00  0.00    -0.207 F 
ENDBRANCH  16  18
ENDBRANCH  15  16
ENDBRANCH   3  15
BRANCH   4  25
ATOM     25  C   UNL     1      15.400  19.196  34.228  1.00  0.00     0.003 A 
ATOM     26  C   UNL     1      16.447  20.131  34.274  1.00  0.00     0.013 A 
ATOM     27  C   UNL     1      15.039  18.673  32.976  1.00  0.00     0.013 A 
ATOM     28  C   UNL     1      17.089  20.541  33.101  1.00  0.00     0.040 A 
ATOM     29  C   UNL     1      15.664  19.095  31.801  1.00  0.00     0.040 A 
ATOM     30  C   UNL     1      16.687  20.025  31.875  1.00  0.00     0.123 A 
ATOM     31  F   UNL     1      17.299  20.420  30.750  1.00  0.00    -0.207 F 
ENDBRANCH   4  25
TORSDOF 6
ENDMDL
MODEL 7
REMARK VINA RESULT:    -7.400      5.413      8.059
REMARK INTER + INTRA:         -11.706
REMARK INTER:                  -9.345
REMARK INTRA:                  -2.361
REMARK UNBOUND:                -1.710
REMARK SMILES O=C([O-])c1ccc(-n2cc(CNc3cccc(F)c3)c(-c3ccc(F)cc3)n2)cc1
REMARK SMILES IDX 8 1 9 2 10 3 20 4 28 5 7 6 4 7 30 8 5 9 29 10 6 11 2 12 1 13
REMARK SMILES IDX 3 14 11 15 12 16 13 18 14 19 19 20 15 21 17 22 16 23 18 24
REMARK SMILES IDX 21 25 27 26 22 27 26 28 23 29 24 30 25 31
REMARK H PARENT 12 17
ROOT
ATOM      1  N   UNL     1      12.583  22.325  36.734  1.00  0.00    -0.240 N 
ATOM      2  C   UNL     1      12.366  23.376  35.880  1.00  0.00     0.121 A 
ATOM      3  C   UNL     1      13.054  23.114  34.713  1.00  0.00     0.018 A 
ATOM      4  C   UNL     1      13.648  21.832  34.927  1.00  0.00     0.098 A 
ATOM      5  N   UNL     1      13.397  21.399  36.174  1.00  0.00    -0.168 NA
ENDROOT
BRANCH   1   6
ATOM      6  C   UNL     1      12.052  22.148  38.047  1.00  0.00     0.065 A 
ATOM      7  C   UNL     1      10.997  21.828  40.640  1.00  0.00    -0.003 A 
ATOM      8  C   UNL     1      11.652  20.764  40.011  1.00  0.00     0.012 A 
ATOM      9  C   UNL     1      10.853  23.046  39.964  1.00  0.00     0.012 A 
ATOM     10  C   UNL     1      12.182  20.924  38.723  1.00  0.00     0.029 A 
ATOM     11  C   UNL     1      11.383  23.209  38.677  1.00  0.00     0.029 A 
BRANCH   7  12
ATOM     12  C   UNL     1      10.395  21.699  41.991  1.00  0.00     0.071 C 
ATOM     13  O   UNL     1       9.873  20.668  42.388  1.00  0.00    -0.545 OA
ATOM     14  O   UNL     1      10.446  22.825  42.733  1.00  0.00    -0.545 OA
ENDBRANCH   7  12
ENDBRANCH   1   6
BRANCH   3  15
ATOM     15  C   UNL     1      13.118  23.999  33.505  1.00  0.00     0.152 C 
BRANCH  15  16
ATOM     16  N   UNL     1      14.415  24.653  33.317  1.00  0.00    -0.381 N 
ATOM     17  H   UNL     1      14.614  25.504  33.770  1.00  0.00     0.160 HD
BRANCH  16  18
ATOM     18  C   UNL     1      15.369  24.053  32.488  1.00  0.00     0.037 A 
ATOM     19  C   UNL     1      16.707  24.009  32.916  1.00  0.00     0.026 A 
ATOM     20  C   UNL     1      15.045  23.415  31.287  1.00  0.00     0.065 A 
ATOM     21  C   UNL     1      17.702  23.400  32.143  1.00  0.00     0.005 A 
ATOM     22  C   UNL     1      16.039  22.802  30.526  1.00  0.00     0.125 A 
ATOM     23  C   UNL     1      17.365  22.793  30.939  1.00  0.00     0.039 A 
ATOM     24  F   UNL     1      15.708  22.202  29.374  1.00  0.00    -0.207 F 
ENDBRANCH  16  18
ENDBRANCH  15  16
ENDBRANCH   3  15
BRANCH   4  25
ATOM     25  C   UNL     1      14.433  21.006  33.995  1.00  0.00     0.003 A 
ATOM     26  C   UNL     1      13.837  20.439  32.857  1.00  0.00     0.013 A 
ATOM     27  C   UNL     1      15.806  20.789  34.197  1.00  0.00     0.013 A 
ATOM     28  C   UNL     1      14.590  19.662  31.969  1.00  0.00     0.040 A 
ATOM     29  C   UNL     1      16.557  20.000  33.323  1.00  0.00     0.040 A 
ATOM     30  C   UNL     1      15.940  19.444  32.214  1.00  0.00     0.123 A 
ATOM     31  F   UNL     1      16.661  18.699  31.366  1.00  0.00    -0.207 F 
ENDBRANCH   4  25
TORSDOF 6
ENDMDL
MODEL 8
REMARK VINA RESULT:    -7.373      1.508      4.190
REMARK INTER + INTRA:         -11.669
REMARK INTER:                 -10.406
REMARK INTRA:                  -1.263
REMARK UNBOUND:                -1.710
REMARK SMILES O=C([O-])c1ccc(-n2cc(CNc3cccc(F)c3)c(-c3ccc(F)cc3)n2)cc1
REMARK SMILES IDX 8 1 9 2 10 3 20 4 28 5 7 6 4 7 30 8 5 9 29 10 6 11 2 12 1 13
REMARK SMILES IDX 3 14 11 15 12 16 13 18 14 19 19 20 15 21 17 22 16 23 18 24
REMARK SMILES IDX 21 25 27 26 22 27 26 28 23 29 24 30 25 31
REMARK H PARENT 12 17
ROOT
ATOM      1  N   UNL     1      14.671  19.681  36.716  1.00  0.00    -0.240 N 
ATOM      2  C   UNL     1      14.939  20.185  37.964  1.00  0.00     0.121 A 
ATOM      3  C   UNL     1      14.666  21.537  37.934  1.00  0.00     0.018 A 
ATOM      4  C   UNL     1      14.188  21.777  36.608  1.00  0.00     0.098 A 
ATOM      5  N   UNL     1      14.252  20.654  35.874  1.00  0.00    -0.168 NA
ENDROOT
BRANCH   1   6
ATOM      6  C   UNL     1      14.784  18.325  36.284  1.00  0.00     0.065 A 
ATOM      7  C   UNL     1      14.994  15.657  35.403  1.00  0.00    -0.003 A 
ATOM      8  C   UNL     1      15.306  15.988  36.726  1.00  0.00     0.012 A 
ATOM      9  C   UNL     1      14.595  16.665  34.516  1.00  0.00     0.012 A 
ATOM     10  C   UNL     1      15.197  17.314  37.166  1.00  0.00     0.029 A 
ATOM     11  C   UNL     1      14.484  17.991  34.954  1.00  0.00     0.029 A 
BRANCH   7  12
ATOM     12  C   UNL     1      15.121  14.272  34.882  1.00  0.00     0.071 C 
ATOM     13  O   UNL     1      14.375  13.813  34.031  1.00  0.00    -0.545 OA
ATOM     14  O   UNL     1      16.113  13.553  35.450  1.00  0.00    -0.545 OA
ENDBRANCH   7  12
ENDBRANCH   1   6
BRANCH   3  15
ATOM     15  C   UNL     1      14.830  22.498  39.072  1.00  0.00     0.152 C 
BRANCH  15  16
ATOM     16  N   UNL     1      14.322  21.995  40.351  1.00  0.00    -0.381 N 
ATOM     17  H   UNL     1      14.927  21.546  40.985  1.00  0.00     0.160 HD
BRANCH  16  18
ATOM     18  C   UNL     1      12.968  22.162  40.662  1.00  0.00     0.037 A 
ATOM     19  C   UNL     1      12.505  21.736  41.918  1.00  0.00     0.026 A 
ATOM     20  C   UNL     1      12.065  22.813  39.817  1.00  0.00     0.065 A 
ATOM     21  C   UNL     1      11.168  21.899  42.297  1.00  0.00     0.005 A 
ATOM     22  C   UNL     1      10.736  22.981  40.203  1.00  0.00     0.125 A 
ATOM     23  C   UNL     1      10.277  22.525  41.433  1.00  0.00     0.039 A 
ATOM     24  F   UNL     1       9.884  23.601  39.376  1.00  0.00    -0.207 F 
ENDBRANCH  16  18
ENDBRANCH  15  16
ENDBRANCH   3  15
BRANCH   4  25
ATOM     25  C   UNL     1      13.669  23.024  36.021  1.00  0.00     0.003 A 
ATOM     26  C   UNL     1      14.504  23.872  35.276  1.00  0.00     0.013 A 
ATOM     27  C   UNL     1      12.318  23.384  36.159  1.00  0.00     0.013 A 
ATOM     28  C   UNL     1      14.004  25.051  34.713  1.00  0.00     0.040 A 
ATOM     29  C   UNL     1      11.820  24.570  35.615  1.00  0.00     0.040 A 
ATOM     30  C   UNL     1      12.669  25.392  34.893  1.00  0.00     0.123 A 
ATOM     31  F   UNL     1      12.190  26.522  34.356  1.00  0.00    -0.207 F 
ENDBRANCH   4  25
TORSDOF 6
ENDMDL
MODEL 9
REMARK VINA RESULT:    -7.359      3.821      6.093
REMARK INTER + INTRA:         -11.650
REMARK INTER:                 -10.185
REMARK INTRA:                  -1.465
REMARK UNBOUND:                -1.710
REMARK SMILES O=C([O-])c1ccc(-n2cc(CNc3cccc(F)c3)c(-c3ccc(F)cc3)n2)cc1
REMARK SMILES IDX 8 1 9 2 10 3 20 4 28 5 7 6 4 7 30 8 5 9 29 10 6 11 2 12 1 13
REMARK SMILES IDX 3 14 11 15 12 16 13 18 14 19 19 20 15 21 17 22 16 23 18 24
REMARK SMILES IDX 21 25 27 26 22 27 26 28 23 29 24 30 25 31
REMARK H PARENT 12 17
ROOT
ATOM      1  N   UNL     1      13.913  17.134  35.321  1.00  0.00    -0.240 N 
ATOM      2  C   UNL     1      14.398  18.414  35.223  1.00  0.00     0.121 A 
ATOM      3  C   UNL     1      15.451  18.530  36.108  1.00  0.00     0.018 A 
ATOM      4  C   UNL     1      15.571  17.231  36.694  1.00  0.00     0.098 A 
ATOM      5  N   UNL     1      14.598  16.421  36.246  1.00  0.00    -0.168 NA
ENDROOT
BRANCH   1   6
ATOM      6  C   UNL     1      12.843  16.550  34.580  1.00  0.00     0.065 A 
ATOM      7  C   UNL     1      10.728  15.375  33.136  1.00  0.00    -0.003 A 
ATOM      8  C   UNL     1      11.374  16.511  32.637  1.00  0.00     0.012 A 
ATOM      9  C   UNL     1      11.127  14.839  34.366  1.00  0.00     0.012 A 
ATOM     10  C   UNL     1      12.430  17.093  33.352  1.00  0.00     0.029 A 
ATOM     11  C   UNL     1      12.182  15.418  35.083  1.00  0.00     0.029 A 
BRANCH   7  12
ATOM     12  C   UNL     1       9.587  14.740  32.429  1.00  0.00     0.071 C 
ATOM     13  O   UNL     1       9.663  14.332  31.280  1.00  0.00    -0.545 OA
ATOM     14  O   UNL     1       8.449  14.678  33.152  1.00  0.00    -0.545 OA
ENDBRANCH   7  12
ENDBRANCH   1   6
BRANCH   3  15
ATOM     15  C   UNL     1      16.270  19.760  36.351  1.00  0.00     0.152 C 
BRANCH  15  16
ATOM     16  N   UNL     1      16.099  20.332  37.689  1.00  0.00    -0.381 N 
ATOM     17  H   UNL     1      16.883  20.536  38.247  1.00  0.00     0.160 HD
BRANCH  16  18
ATOM     18  C   UNL     1      14.807  20.585  38.164  1.00  0.00     0.037 A 
ATOM     19  C   UNL     1      14.412  20.018  39.387  1.00  0.00     0.026 A 
ATOM     20  C   UNL     1      13.913  21.448  37.524  1.00  0.00     0.065 A 
ATOM     21  C   UNL     1      13.143  20.255  39.928  1.00  0.00     0.005 A 
ATOM     22  C   UNL     1      12.653  21.688  38.071  1.00  0.00     0.125 A 
ATOM     23  C   UNL     1      12.258  21.096  39.263  1.00  0.00     0.039 A 
ATOM     24  F   UNL     1      11.808  22.513  37.437  1.00  0.00    -0.207 F 
ENDBRANCH  16  18
ENDBRANCH  15  16
ENDBRANCH   3  15
BRANCH   4  25
ATOM     25  C   UNL     1      16.574  16.736  37.651  1.00  0.00     0.003 A 
ATOM     26  C   UNL     1      16.324  16.759  39.033  1.00  0.00     0.013 A 
ATOM     27  C   UNL     1      17.793  16.194  37.211  1.00  0.00     0.013 A 
ATOM     28  C   UNL     1      17.277  16.278  39.938  1.00  0.00     0.040 A 
ATOM     29  C   UNL     1      18.753  15.731  38.112  1.00  0.00     0.040 A 
ATOM     30  C   UNL     1      18.485  15.775  39.470  1.00  0.00     0.123 A 
ATOM     31  F   UNL     1      19.398  15.317  40.336  1.00  0.00    -0.207 F 
ENDBRANCH   4  25
TORSDOF 6
ENDMDL
MODEL 10
REMARK VINA RESULT:    -7.338      4.827      8.202
REMARK INTER + INTRA:         -11.622
REMARK INTER:                 -10.187
REMARK INTRA:                  -1.435
REMARK UNBOUND:                -1.710
REMARK SMILES O=C([O-])c1ccc(-n2cc(CNc3cccc(F)c3)c(-c3ccc(F)cc3)n2)cc1
REMARK SMILES IDX 8 1 9 2 10 3 20 4 28 5 7 6 4 7 30 8 5 9 29 10 6 11 2 12 1 13
REMARK SMILES IDX 3 14 11 15 12 16 13 18 14 19 19 20 15 21 17 22 16 23 18 24
REMARK SMILES IDX 21 25 27 26 22 27 26 28 23 29 24 30 25 31
REMARK H PARENT 12 17
ROOT
ATOM      1  N   UNL     1      13.284  21.250  37.072  1.00  0.00    -0.240 N 
ATOM      2  C   UNL     1      14.301  20.377  36.776  1.00  0.00     0.121 A 
ATOM      3  C   UNL     1      14.685  20.612  35.472  1.00  0.00     0.018 A 
ATOM      4  C   UNL     1      13.858  21.697  35.044  1.00  0.00     0.098 A 
ATOM      5  N   UNL     1      12.983  22.030  36.007  1.00  0.00    -0.168 NA
ENDROOT
BRANCH   1   6
ATOM      6  C   UNL     1      12.592  21.389  38.313  1.00  0.00     0.065 A 
ATOM      7  C   UNL     1      11.219  21.693  40.753  1.00  0.00    -0.003 A 
ATOM      8  C   UNL     1      11.918  20.513  40.483  1.00  0.00     0.012 A 
ATOM      9  C   UNL     1      11.190  22.713  39.795  1.00  0.00     0.012 A 
ATOM     10  C   UNL     1      12.607  20.363  39.271  1.00  0.00     0.029 A 
ATOM     11  C   UNL     1      11.878  22.567  38.583  1.00  0.00     0.029 A 
BRANCH   7  12
ATOM     12  C   UNL     1      10.452  21.888  42.010  1.00  0.00     0.071 C 
ATOM     13  O   UNL     1      10.516  22.911  42.674  1.00  0.00    -0.545 OA
ATOM     14  O   UNL     1       9.699  20.828  42.373  1.00  0.00    -0.545 OA
ENDBRANCH   7  12
ENDBRANCH   1   6
BRANCH   3  15
ATOM     15  C   UNL     1      15.752  19.878  34.718  1.00  0.00     0.152 C 
BRANCH  15  16
ATOM     16  N   UNL     1      15.262  19.178  33.527  1.00  0.00    -0.381 N 
ATOM     17  H   UNL     1      15.597  19.421  32.634  1.00  0.00     0.160 HD
BRANCH  16  18
ATOM     18  C   UNL     1      14.315  18.159  33.675  1.00  0.00     0.037 A 
ATOM     19  C   UNL     1      13.160  18.186  32.875  1.00  0.00     0.026 A 
ATOM     20  C   UNL     1      14.499  17.061  34.520  1.00  0.00     0.065 A 
ATOM     21  C   UNL     1      12.189  17.182  32.958  1.00  0.00     0.005 A 
ATOM     22  C   UNL     1      13.533  16.058  34.593  1.00  0.00     0.125 A 
ATOM     23  C   UNL     1      12.378  16.111  33.824  1.00  0.00     0.039 A 
ATOM     24  F   UNL     1      13.726  15.018  35.415  1.00  0.00    -0.207 F 
ENDBRANCH  16  18
ENDBRANCH  15  16
ENDBRANCH   3  15
BRANCH   4  25
ATOM     25  C   UNL     1      13.876  22.429  33.767  1.00  0.00     0.003 A 
ATOM     26  C   UNL     1      13.164  21.953  32.654  1.00  0.00     0.013 A 
ATOM     27  C   UNL     1      14.574  23.640  33.633  1.00  0.00     0.013 A 
ATOM     28  C   UNL     1      13.176  22.657  31.445  1.00  0.00     0.040 A 
ATOM     29  C   UNL     1      14.604  24.336  32.423  1.00  0.00     0.040 A 
ATOM     30  C   UNL     1      13.902  23.837  31.338  1.00  0.00     0.123 A 
ATOM     31  F   UNL     1      13.916  24.511  30.181  1.00  0.00    -0.207 F 
ENDBRANCH   4  25
TORSDOF 6
ENDMDL
MODEL 11
REMARK VINA RESULT:    -7.297      1.745      2.326
REMARK INTER + INTRA:         -11.566
REMARK INTER:                 -10.351
REMARK INTRA:                  -1.215
REMARK UNBOUND:                -1.710
REMARK SMILES O=C([O-])c1ccc(-n2cc(CNc3cccc(F)c3)c(-c3ccc(F)cc3)n2)cc1
REMARK SMILES IDX 8 1 9 2 10 3 20 4 28 5 7 6 4 7 30 8 5 9 29 10 6 11 2 12 1 13
REMARK SMILES IDX 3 14 11 15 12 16 13 18 14 19 19 20 15 21 17 22 16 23 18 24
REMARK SMILES IDX 21 25 27 26 22 27 26 28 23 29 24 30 25 31
REMARK H PARENT 12 17
ROOT
ATOM      1  N   UNL     1      14.418  19.376  37.281  1.00  0.00    -0.240 N 
ATOM      2  C   UNL     1      15.089  20.539  36.998  1.00  0.00     0.121 A 
ATOM      3  C   UNL     1      14.557  21.531  37.795  1.00  0.00     0.018 A 
ATOM      4  C   UNL     1      13.567  20.866  38.583  1.00  0.00     0.098 A 
ATOM      5  N   UNL     1      13.461  19.578  38.217  1.00  0.00    -0.168 NA
ENDROOT
BRANCH   1   6
ATOM      6  C   UNL     1      14.642  18.084  36.717  1.00  0.00     0.065 A 
ATOM      7  C   UNL     1      15.072  15.543  35.579  1.00  0.00    -0.003 A 
ATOM      8  C   UNL     1      15.344  15.762  36.933  1.00  0.00     0.012 A 
ATOM      9  C   UNL     1      14.604  16.601  34.789  1.00  0.00     0.012 A 
ATOM     10  C   UNL     1      15.125  17.024  37.502  1.00  0.00     0.029 A 
ATOM     11  C   UNL     1      14.383  17.863  35.355  1.00  0.00     0.029 A 
BRANCH   7  12
ATOM     12  C   UNL     1      15.314  14.232  34.925  1.00  0.00     0.071 C 
ATOM     13  O   UNL     1      14.708  13.866  33.929  1.00  0.00    -0.545 OA
ATOM     14  O   UNL     1      16.240  13.465  35.540  1.00  0.00    -0.545 OA
ENDBRANCH   7  12
ENDBRANCH   1   6
BRANCH   3  15
ATOM     15  C   UNL     1      14.973  22.971  37.811  1.00  0.00     0.152 C 
BRANCH  15  16
ATOM     16  N   UNL     1      14.177  23.827  36.927  1.00  0.00    -0.381 N 
ATOM     17  H   UNL     1      13.665  24.583  37.295  1.00  0.00     0.160 HD
BRANCH  16  18
ATOM     18  C   UNL     1      14.155  23.559  35.554  1.00  0.00     0.037 A 
ATOM     19  C   UNL     1      15.340  23.712  34.815  1.00  0.00     0.026 A 
ATOM     20  C   UNL     1      13.031  23.059  34.892  1.00  0.00     0.065 A 
ATOM     21  C   UNL     1      15.388  23.434  33.445  1.00  0.00     0.005 A 
ATOM     22  C   UNL     1      13.086  22.775  33.528  1.00  0.00     0.125 A 
ATOM     23  C   UNL     1      14.252  22.963  32.797  1.00  0.00     0.039 A 
ATOM     24  F   UNL     1      11.995  22.303  32.910  1.00  0.00    -0.207 F 
ENDBRANCH  16  18
ENDBRANCH  15  16
ENDBRANCH   3  15
BRANCH   4  25
ATOM     25  C   UNL     1      12.730  21.405  39.668  1.00  0.00     0.003 A 
ATOM     26  C   UNL     1      11.616  22.212  39.386  1.00  0.00     0.013 A 
ATOM     27  C   UNL     1      12.999  21.100  41.012  1.00  0.00     0.013 A 
ATOM     28  C   UNL     1      10.818  22.713  40.420  1.00  0.00     0.040 A 
ATOM     29  C   UNL     1      12.216  21.614  42.048  1.00  0.00     0.040 A 
ATOM     30  C   UNL     1      11.129  22.416  41.741  1.00  0.00     0.123 A 
ATOM     31  F   UNL     1      10.367  22.898  42.732  1.00  0.00    -0.207 F 
ENDBRANCH   4  25
TORSDOF 6
ENDMDL
MODEL 12
REMARK VINA RESULT:    -7.289      5.473      8.004
REMARK INTER + INTRA:         -11.555
REMARK INTER:                  -9.246
REMARK INTRA:                  -2.309
REMARK UNBOUND:                -1.710
REMARK SMILES O=C([O-])c1ccc(-n2cc(CNc3cccc(F)c3)c(-c3ccc(F)cc3)n2)cc1
REMARK SMILES IDX 8 1 9 2 10 3 20 4 28 5 7 6 4 7 30 8 5 9 29 10 6 11 2 12 1 13
REMARK SMILES IDX 3 14 11 15 12 16 13 18 14 19 19 20 15 21 17 22 16 23 18 24
REMARK SMILES IDX 21 25 27 26 22 27 26 28 23 29 24 30 25 31
REMARK H PARENT 12 17
ROOT
ATOM      1  N   UNL     1      12.269  23.303  36.830  1.00  0.00    -0.240 N 
ATOM      2  C   UNL     1      12.173  24.580  36.338  1.00  0.00     0.121 A 
ATOM      3  C   UNL     1      12.702  24.578  35.064  1.00  0.00     0.018 A 
ATOM      4  C   UNL     1      13.074  23.216  34.833  1.00  0.00     0.098 A 
ATOM      5  N   UNL     1      12.854  22.476  35.932  1.00  0.00    -0.168 NA
ENDROOT
BRANCH   1   6
ATOM      6  C   UNL     1      11.827  22.824  38.099  1.00  0.00     0.065 A 
ATOM      7  C   UNL     1      10.970  21.853  40.601  1.00  0.00    -0.003 A 
ATOM      8  C   UNL     1      10.524  23.095  40.139  1.00  0.00     0.012 A 
ATOM      9  C   UNL     1      11.860  21.105  39.821  1.00  0.00     0.012 A 
ATOM     10  C   UNL     1      10.946  23.577  38.892  1.00  0.00     0.029 A 
ATOM     11  C   UNL     1      12.282  21.584  38.573  1.00  0.00     0.029 A 
BRANCH   7  12
ATOM     12  C   UNL     1      10.573  21.313  41.927  1.00  0.00     0.071 C 
ATOM     13  O   UNL     1       9.408  21.187  42.269  1.00  0.00    -0.545 OA
ATOM     14  O   UNL     1      11.610  21.000  42.733  1.00  0.00    -0.545 OA
ENDBRANCH   7  12
ENDBRANCH   1   6
BRANCH   3  15
ATOM     15  C   UNL     1      12.822  25.761  34.153  1.00  0.00     0.152 C 
BRANCH  15  16
ATOM     16  N   UNL     1      14.200  26.214  33.947  1.00  0.00    -0.381 N 
ATOM     17  H   UNL     1      14.621  26.835  34.584  1.00  0.00     0.160 HD
BRANCH  16  18
ATOM     18  C   UNL     1      14.912  25.751  32.834  1.00  0.00     0.037 A 
ATOM     19  C   UNL     1      14.241  25.623  31.607  1.00  0.00     0.026 A 
ATOM     20  C   UNL     1      16.285  25.491  32.859  1.00  0.00     0.065 A 
ATOM     21  C   UNL     1      14.904  25.191  30.452  1.00  0.00     0.005 A 
ATOM     22  C   UNL     1      16.943  25.070  31.705  1.00  0.00     0.125 A 
ATOM     23  C   UNL     1      16.265  24.912  30.503  1.00  0.00     0.039 A 
ATOM     24  F   UNL     1      18.258  24.819  31.752  1.00  0.00    -0.207 F 
ENDBRANCH  16  18
ENDBRANCH  15  16
ENDBRANCH   3  15
BRANCH   4  25
ATOM     25  C   UNL     1      13.618  22.598  33.612  1.00  0.00     0.003 A 
ATOM     26  C   UNL     1      12.812  22.414  32.477  1.00  0.00     0.013 A 
ATOM     27  C   UNL     1      14.965  22.208  33.535  1.00  0.00     0.013 A 
ATOM     28  C   UNL     1      13.336  21.834  31.317  1.00  0.00     0.040 A 
ATOM     29  C   UNL     1      15.487  21.612  32.385  1.00  0.00     0.040 A 
ATOM     30  C   UNL     1      14.666  21.432  31.283  1.00  0.00     0.123 A 
ATOM     31  F   UNL     1      15.168  20.876  30.173  1.00  0.00    -0.207 F 
ENDBRANCH   4  25
TORSDOF 6
ENDMDL
MODEL 13
REMARK VINA RESULT:    -7.264      5.037      8.553
REMARK INTER + INTRA:         -11.522
REMARK INTER:                 -10.253
REMARK INTRA:                  -1.268
REMARK UNBOUND:                -1.710
REMARK SMILES O=C([O-])c1ccc(-n2cc(CNc3cccc(F)c3)c(-c3ccc(F)cc3)n2)cc1
REMARK SMILES IDX 8 1 9 2 10 3 20 4 28 5 7 6 4 7 30 8 5 9 29 10 6 11 2 12 1 13
REMARK SMILES IDX 3 14 11 15 12 16 13 18 14 19 19 20 15 21 17 22 16 23 18 24
REMARK SMILES IDX 21 25 27 26 22 27 26 28 23 29 24 30 25 31
REMARK H PARENT 12 17
ROOT
ATOM      1  N   UNL     1      13.608  20.649  38.225  1.00  0.00    -0.240 N 
ATOM      2  C   UNL     1      14.145  20.138  39.379  1.00  0.00     0.121 A 
ATOM      3  C   UNL     1      14.511  18.832  39.125  1.00  0.00     0.018 A 
ATOM      4  C   UNL     1      14.191  18.631  37.746  1.00  0.00     0.098 A 
ATOM      5  N   UNL     1      13.596  19.723  37.238  1.00  0.00    -0.168 NA
ENDROOT
BRANCH   1   6
ATOM      6  C   UNL     1      13.114  21.970  38.007  1.00  0.00     0.065 A 
ATOM      7  C   UNL     1      12.166  24.585  37.560  1.00  0.00    -0.003 A 
ATOM      8  C   UNL     1      11.448  23.707  38.378  1.00  0.00     0.012 A 
ATOM      9  C   UNL     1      13.348  24.149  36.949  1.00  0.00     0.012 A 
ATOM     10  C   UNL     1      11.922  22.408  38.606  1.00  0.00     0.029 A 
ATOM     11  C   UNL     1      13.825  22.851  37.175  1.00  0.00     0.029 A 
BRANCH   7  12
ATOM     12  C   UNL     1      11.690  25.961  37.267  1.00  0.00     0.071 C 
ATOM     13  O   UNL     1      10.798  26.503  37.901  1.00  0.00    -0.545 OA
ATOM     14  O   UNL     1      12.306  26.552  36.221  1.00  0.00    -0.545 OA
ENDBRANCH   7  12
ENDBRANCH   1   6
BRANCH   3  15
ATOM     15  C   UNL     1      15.125  17.879  40.105  1.00  0.00     0.152 C 
BRANCH  15  16
ATOM     16  N   UNL     1      16.543  18.133  40.371  1.00  0.00    -0.381 N 
ATOM     17  H   UNL     1      16.816  18.665  41.153  1.00  0.00     0.160 HD
BRANCH  16  18
ATOM     18  C   UNL     1      17.507  17.611  39.500  1.00  0.00     0.037 A 
ATOM     19  C   UNL     1      17.889  16.266  39.642  1.00  0.00     0.026 A 
ATOM     20  C   UNL     1      18.047  18.336  38.436  1.00  0.00     0.065 A 
ATOM     21  C   UNL     1      18.828  15.679  38.786  1.00  0.00     0.005 A 
ATOM     22  C   UNL     1      18.975  17.744  37.580  1.00  0.00     0.125 A 
ATOM     23  C   UNL     1      19.375  16.425  37.748  1.00  0.00     0.039 A 
ATOM     24  F   UNL     1      19.487  18.460  36.569  1.00  0.00    -0.207 F 
ENDBRANCH  16  18
ENDBRANCH  15  16
ENDBRANCH   3  15
BRANCH   4  25
ATOM     25  C   UNL     1      14.436  17.452  36.900  1.00  0.00     0.003 A 
ATOM     26  C   UNL     1      14.835  16.230  37.465  1.00  0.00     0.013 A 
ATOM     27  C   UNL     1      14.245  17.503  35.510  1.00  0.00     0.013 A 
ATOM     28  C   UNL     1      15.057  15.109  36.658  1.00  0.00     0.040 A 
ATOM     29  C   UNL     1      14.484  16.392  34.698  1.00  0.00     0.040 A 
ATOM     30  C   UNL     1      14.887  15.202  35.281  1.00  0.00     0.123 A 
ATOM     31  F   UNL     1      15.101  14.131  34.507  1.00  0.00    -0.207 F 
ENDBRANCH   4  25
TORSDOF 6
ENDMDL
MODEL 14
REMARK VINA RESULT:    -7.166      4.038      5.710
REMARK INTER + INTRA:         -11.390
REMARK INTER:                  -9.364
REMARK INTRA:                  -2.026
REMARK UNBOUND:                -1.710
REMARK SMILES O=C([O-])c1ccc(-n2cc(CNc3cccc(F)c3)c(-c3ccc(F)cc3)n2)cc1
REMARK SMILES IDX 8 1 9 2 10 3 20 4 28 5 7 6 4 7 30 8 5 9 29 10 6 11 2 12 1 13
REMARK SMILES IDX 3 14 11 15 12 16 13 18 14 19 19 20 15 21 17 22 16 23 18 24
REMARK SMILES IDX 21 25 27 26 22 27 26 28 23 29 24 30 25 31
REMARK H PARENT 12 17
ROOT
ATOM      1  N   UNL     1      16.274  22.802  34.828  1.00  0.00    -0.240 N 
ATOM      2  C   UNL     1      16.785  22.432  36.046  1.00  0.00     0.121 A 
ATOM      3  C   UNL     1      15.990  23.001  37.021  1.00  0.00     0.018 A 
ATOM      4  C   UNL     1      14.969  23.689  36.295  1.00  0.00     0.098 A 
ATOM      5  N   UNL     1      15.191  23.601  34.973  1.00  0.00    -0.168 NA
ENDROOT
BRANCH   1   6
ATOM      6  C   UNL     1      16.753  22.430  33.536  1.00  0.00     0.065 A 
ATOM      7  C   UNL     1      17.670  21.699  30.974  1.00  0.00    -0.003 A 
ATOM      8  C   UNL     1      18.539  21.660  32.069  1.00  0.00     0.012 A 
ATOM      9  C   UNL     1      16.348  22.123  31.157  1.00  0.00     0.012 A 
ATOM     10  C   UNL     1      18.082  22.019  33.345  1.00  0.00     0.029 A 
ATOM     11  C   UNL     1      15.888  22.480  32.431  1.00  0.00     0.029 A 
BRANCH   7  12
ATOM     12  C   UNL     1      18.114  21.357  29.599  1.00  0.00     0.071 C 
ATOM     13  O   UNL     1      19.070  20.630  29.373  1.00  0.00    -0.545 OA
ATOM     14  O   UNL     1      17.391  21.939  28.619  1.00  0.00    -0.545 OA
ENDBRANCH   7  12
ENDBRANCH   1   6
BRANCH   3  15
ATOM     15  C   UNL     1      16.184  22.880  38.502  1.00  0.00     0.152 C 
BRANCH  15  16
ATOM     16  N   UNL     1      15.591  21.672  39.081  1.00  0.00    -0.381 N 
ATOM     17  H   UNL     1      16.161  20.908  39.329  1.00  0.00     0.160 HD
BRANCH  16  18
ATOM     18  C   UNL     1      14.207  21.615  39.277  1.00  0.00     0.037 A 
ATOM     19  C   UNL     1      13.464  20.644  38.584  1.00  0.00     0.026 A 
ATOM     20  C   UNL     1      13.532  22.423  40.196  1.00  0.00     0.065 A 
ATOM     21  C   UNL     1      12.081  20.520  38.758  1.00  0.00     0.005 A 
ATOM     22  C   UNL     1      12.156  22.290  40.373  1.00  0.00     0.125 A 
ATOM     23  C   UNL     1      11.423  21.350  39.658  1.00  0.00     0.039 A 
ATOM     24  F   UNL     1      11.526  23.078  41.254  1.00  0.00    -0.207 F 
ENDBRANCH  16  18
ENDBRANCH  15  16
ENDBRANCH   3  15
BRANCH   4  25
ATOM     25  C   UNL     1      13.794  24.413  36.807  1.00  0.00     0.003 A 
ATOM     26  C   UNL     1      13.916  25.719  37.309  1.00  0.00     0.013 A 
ATOM     27  C   UNL     1      12.515  23.835  36.778  1.00  0.00     0.013 A 
ATOM     28  C   UNL     1      12.795  26.407  37.786  1.00  0.00     0.040 A 
ATOM     29  C   UNL     1      11.397  24.511  37.271  1.00  0.00     0.040 A 
ATOM     30  C   UNL     1      11.548  25.794  37.770  1.00  0.00     0.123 A 
ATOM     31  F   UNL     1      10.474  26.451  38.229  1.00  0.00    -0.207 F 
ENDBRANCH   4  25
TORSDOF 6
ENDMDL
MODEL 15
REMARK VINA RESULT:    -7.154      5.238      7.942
REMARK INTER + INTRA:         -11.374
REMARK INTER:                  -9.064
REMARK INTRA:                  -2.310
REMARK UNBOUND:                -1.710
REMARK SMILES O=C([O-])c1ccc(-n2cc(CNc3cccc(F)c3)c(-c3ccc(F)cc3)n2)cc1
REMARK SMILES IDX 8 1 9 2 10 3 20 4 28 5 7 6 4 7 30 8 5 9 29 10 6 11 2 12 1 13
REMARK SMILES IDX 3 14 11 15 12 16 13 18 14 19 19 20 15 21 17 22 16 23 18 24
REMARK SMILES IDX 21 25 27 26 22 27 26 28 23 29 24 30 25 31
REMARK H PARENT 12 17
ROOT
ATOM      1  N   UNL     1      13.681  22.129  37.412  1.00  0.00    -0.240 N 
ATOM      2  C   UNL     1      15.045  22.270  37.373  1.00  0.00     0.121 A 
ATOM      3  C   UNL     1      15.410  22.419  36.051  1.00  0.00     0.018 A 
ATOM      4  C   UNL     1      14.175  22.395  35.332  1.00  0.00     0.098 A 
ATOM      5  N   UNL     1      13.149  22.164  36.168  1.00  0.00    -0.168 NA
ENDROOT
BRANCH   1   6
ATOM      6  C   UNL     1      12.856  21.972  38.566  1.00  0.00     0.065 A 
ATOM      7  C   UNL     1      11.217  21.692  40.840  1.00  0.00    -0.003 A 
ATOM      8  C   UNL     1      12.117  20.679  40.494  1.00  0.00     0.012 A 
ATOM      9  C   UNL     1      11.122  22.836  40.038  1.00  0.00     0.012 A 
ATOM     10  C   UNL     1      12.937  20.820  39.365  1.00  0.00     0.029 A 
ATOM     11  C   UNL     1      11.941  22.980  38.911  1.00  0.00     0.029 A 
BRANCH   7  12
ATOM     12  C   UNL     1      10.308  21.576  42.009  1.00  0.00     0.071 C 
ATOM     13  O   UNL     1       9.702  20.550  42.279  1.00  0.00    -0.545 OA
ATOM     14  O   UNL     1      10.185  22.709  42.733  1.00  0.00    -0.545 OA
ENDBRANCH   7  12
ENDBRANCH   1   6
BRANCH   3  15
ATOM     15  C   UNL     1      16.806  22.586  35.532  1.00  0.00     0.152 C 
BRANCH  15  16
ATOM     16  N   UNL     1      17.365  21.372  34.931  1.00  0.00    -0.381 N 
ATOM     17  H   UNL     1      17.965  20.790  35.451  1.00  0.00     0.160 HD
BRANCH  16  18
ATOM     18  C   UNL     1      17.034  21.048  33.611  1.00  0.00     0.037 A 
ATOM     19  C   UNL     1      17.290  21.989  32.599  1.00  0.00     0.026 A 
ATOM     20  C   UNL     1      16.541  19.797  33.231  1.00  0.00     0.065 A 
ATOM     21  C   UNL     1      17.007  21.714  31.256  1.00  0.00     0.005 A 
ATOM     22  C   UNL     1      16.268  19.525  31.891  1.00  0.00     0.125 A 
ATOM     23  C   UNL     1      16.491  20.474  30.901  1.00  0.00     0.039 A 
ATOM     24  F   UNL     1      15.788  18.322  31.549  1.00  0.00    -0.207 F 
ENDBRANCH  16  18
ENDBRANCH  15  16
ENDBRANCH   3  15
BRANCH   4  25
ATOM     25  C   UNL     1      13.935  22.591  33.893  1.00  0.00     0.003 A 
ATOM     26  C   UNL     1      13.376  21.568  33.110  1.00  0.00     0.013 A 
ATOM     27  C   UNL     1      14.225  23.815  33.268  1.00  0.00     0.013 A 
ATOM     28  C   UNL     1      13.142  21.763  31.744  1.00  0.00     0.040 A 
ATOM     29  C   UNL     1      14.011  24.007  31.902  1.00  0.00     0.040 A 
ATOM     30  C   UNL     1      13.468  22.977  31.151  1.00  0.00     0.123 A 
ATOM     31  F   UNL     1      13.246  23.163  29.844  1.00  0.00    -0.207 F 
ENDBRANCH   4  25
TORSDOF 6
ENDMDL
MODEL 16
REMARK VINA RESULT:    -7.139      3.058      5.741
REMARK INTER + INTRA:         -11.354
REMARK INTER:                 -10.423
REMARK INTRA:                  -0.931
REMARK UNBOUND:                -1.710
REMARK SMILES O=C([O-])c1ccc(-n2cc(CNc3cccc(F)c3)c(-c3ccc(F)cc3)n2)cc1
REMARK SMILES IDX 8 1 9 2 10 3 20 4 28 5 7 6 4 7 30 8 5 9 29 10 6 11 2 12 1 13
REMARK SMILES IDX 3 14 11 15 12 16 13 18 14 19 19 20 15 21 17 22 16 23 18 24
REMARK SMILES IDX 21 25 27 26 22 27 26 28 23 29 24 30 25 31
REMARK H PARENT 12 17
ROOT
ATOM      1  N   UNL     1      14.934  20.292  37.608  1.00  0.00    -0.240 N 
ATOM      2  C   UNL     1      13.775  20.729  38.198  1.00  0.00     0.121 A 
ATOM      3  C   UNL     1      13.267  21.746  37.416  1.00  0.00     0.018 A 
ATOM      4  C   UNL     1      14.179  21.845  36.319  1.00  0.00     0.098 A 
ATOM      5  N   UNL     1      15.207  20.996  36.484  1.00  0.00    -0.168 NA
ENDROOT
BRANCH   1   6
ATOM      6  C   UNL     1      15.790  19.238  38.048  1.00  0.00     0.065 A 
ATOM      7  C   UNL     1      17.464  17.157  38.943  1.00  0.00    -0.003 A 
ATOM      8  C   UNL     1      17.711  17.779  37.715  1.00  0.00     0.012 A 
ATOM      9  C   UNL     1      16.368  17.563  39.714  1.00  0.00     0.012 A 
ATOM     10  C   UNL     1      16.882  18.818  37.271  1.00  0.00     0.029 A 
ATOM     11  C   UNL     1      15.538  18.603  39.274  1.00  0.00     0.029 A 
BRANCH   7  12
ATOM     12  C   UNL     1      18.297  16.033  39.443  1.00  0.00     0.071 C 
ATOM     13  O   UNL     1      19.418  15.799  39.018  1.00  0.00    -0.545 OA
ATOM     14  O   UNL     1      17.700  15.274  40.386  1.00  0.00    -0.545 OA
ENDBRANCH   7  12
ENDBRANCH   1   6
BRANCH   3  15
ATOM     15  C   UNL     1      12.020  22.532  37.686  1.00  0.00     0.152 C 
BRANCH  15  16
ATOM     16  N   UNL     1      12.055  23.286  38.941  1.00  0.00    -0.381 N 
ATOM     17  H   UNL     1      12.210  24.258  38.934  1.00  0.00     0.160 HD
BRANCH  16  18
ATOM     18  C   UNL     1      11.865  22.609  40.151  1.00  0.00     0.037 A 
ATOM     19  C   UNL     1      12.891  22.638  41.111  1.00  0.00     0.026 A 
ATOM     20  C   UNL     1      10.668  21.975  40.492  1.00  0.00     0.065 A 
ATOM     21  C   UNL     1      12.750  22.003  42.350  1.00  0.00     0.005 A 
ATOM     22  C   UNL     1      10.529  21.351  41.731  1.00  0.00     0.125 A 
ATOM     23  C   UNL     1      11.561  21.354  42.661  1.00  0.00     0.039 A 
ATOM     24  F   UNL     1       9.375  20.742  42.036  1.00  0.00    -0.207 F 
ENDBRANCH  16  18
ENDBRANCH  15  16
ENDBRANCH   3  15
BRANCH   4  25
ATOM     25  C   UNL     1      14.106  22.705  35.126  1.00  0.00     0.003 A 
ATOM     26  C   UNL     1      13.238  22.393  34.066  1.00  0.00     0.013 A 
ATOM     27  C   UNL     1      14.872  23.877  35.028  1.00  0.00     0.013 A 
ATOM     28  C   UNL     1      13.165  23.218  32.939  1.00  0.00     0.040 A 
ATOM     29  C   UNL     1      14.815  24.693  33.896  1.00  0.00     0.040 A 
ATOM     30  C   UNL     1      13.959  24.356  32.861  1.00  0.00     0.123 A 
ATOM     31  F   UNL     1      13.891  25.146  31.781  1.00  0.00    -0.207 F 
ENDBRANCH   4  25
TORSDOF 6
ENDMDL
MODEL 17
REMARK VINA RESULT:    -7.072      3.800      6.347
REMARK INTER + INTRA:         -11.263
REMARK INTER:                 -10.476
REMARK INTRA:                  -0.787
REMARK UNBOUND:                -1.710
REMARK SMILES O=C([O-])c1ccc(-n2cc(CNc3cccc(F)c3)c(-c3ccc(F)cc3)n2)cc1
REMARK SMILES IDX 8 1 9 2 10 3 20 4 28 5 7 6 4 7 30 8 5 9 29 10 6 11 2 12 1 13
REMARK SMILES IDX 3 14 11 15 12 16 13 18 14 19 19 20 15 21 17 22 16 23 18 24
REMARK SMILES IDX 21 25 27 26 22 27 26 28 23 29 24 30 25 31
REMARK H PARENT 12 17
ROOT
ATOM      1  N   UNL     1      14.114  21.062  36.162  1.00  0.00    -0.240 N 
ATOM      2  C   UNL     1      14.850  20.102  36.810  1.00  0.00     0.121 A 
ATOM      3  C   UNL     1      14.529  20.166  38.151  1.00  0.00     0.018 A 
ATOM      4  C   UNL     1      13.537  21.192  38.233  1.00  0.00     0.098 A 
ATOM      5  N   UNL     1      13.342  21.757  37.030  1.00  0.00    -0.168 NA
ENDROOT
BRANCH   1   6
ATOM      6  C   UNL     1      14.098  21.348  34.763  1.00  0.00     0.065 A 
ATOM      7  C   UNL     1      14.046  21.934  32.009  1.00  0.00    -0.003 A 
ATOM      8  C   UNL     1      14.811  20.865  32.485  1.00  0.00     0.012 A 
ATOM      9  C   UNL     1      13.323  22.722  32.912  1.00  0.00     0.012 A 
ATOM     10  C   UNL     1      14.834  20.569  33.855  1.00  0.00     0.029 A 
ATOM     11  C   UNL     1      13.342  22.428  34.282  1.00  0.00     0.029 A 
BRANCH   7  12
ATOM     12  C   UNL     1      14.012  22.304  30.571  1.00  0.00     0.071 C 
ATOM     13  O   UNL     1      13.027  22.785  30.033  1.00  0.00    -0.545 OA
ATOM     14  O   UNL     1      15.153  22.036  29.900  1.00  0.00    -0.545 OA
ENDBRANCH   7  12
ENDBRANCH   1   6
BRANCH   3  15
ATOM     15  C   UNL     1      15.106  19.314  39.240  1.00  0.00     0.152 C 
BRANCH  15  16
ATOM     16  N   UNL     1      14.488  17.989  39.346  1.00  0.00    -0.381 N 
ATOM     17  H   UNL     1      13.905  17.772  40.108  1.00  0.00     0.160 HD
BRANCH  16  18
ATOM     18  C   UNL     1      14.736  17.038  38.351  1.00  0.00     0.037 A 
ATOM     19  C   UNL     1      16.046  16.557  38.185  1.00  0.00     0.026 A 
ATOM     20  C   UNL     1      13.728  16.473  37.565  1.00  0.00     0.065 A 
ATOM     21  C   UNL     1      16.353  15.586  37.225  1.00  0.00     0.005 A 
ATOM     22  C   UNL     1      14.037  15.499  36.616  1.00  0.00     0.125 A 
ATOM     23  C   UNL     1      15.340  15.054  36.435  1.00  0.00     0.039 A 
ATOM     24  F   UNL     1      13.056  14.975  35.869  1.00  0.00    -0.207 F 
ENDBRANCH  16  18
ENDBRANCH  15  16
ENDBRANCH   3  15
BRANCH   4  25
ATOM     25  C   UNL     1      12.768  21.646  39.404  1.00  0.00     0.003 A 
ATOM     26  C   UNL     1      11.576  22.372  39.245  1.00  0.00     0.013 A 
ATOM     27  C   UNL     1      13.182  21.337  40.709  1.00  0.00     0.013 A 
ATOM     28  C   UNL     1      10.844  22.793  40.361  1.00  0.00     0.040 A 
ATOM     29  C   UNL     1      12.464  21.771  41.825  1.00  0.00     0.040 A 
ATOM     30  C   UNL     1      11.298  22.495  41.640  1.00  0.00     0.123 A 
ATOM     31  F   UNL     1      10.598  22.900  42.708  1.00  0.00    -0.207 F 
ENDBRANCH   4  25
TORSDOF 6
ENDMDL
MODEL 18
REMARK VINA RESULT:    -7.063      4.150      6.535
REMARK INTER + INTRA:         -11.251
REMARK INTER:                 -10.301
REMARK INTRA:                  -0.950
REMARK UNBOUND:                -1.710
REMARK SMILES O=C([O-])c1ccc(-n2cc(CNc3cccc(F)c3)c(-c3ccc(F)cc3)n2)cc1
REMARK SMILES IDX 8 1 9 2 10 3 20 4 28 5 7 6 4 7 30 8 5 9 29 10 6 11 2 12 1 13
REMARK SMILES IDX 3 14 11 15 12 16 13 18 14 19 19 20 15 21 17 22 16 23 18 24
REMARK SMILES IDX 21 25 27 26 22 27 26 28 23 29 24 30 25 31
REMARK H PARENT 12 17
ROOT
ATOM      1  N   UNL     1      14.955  19.971  35.830  1.00  0.00    -0.240 N 
ATOM      2  C   UNL     1      14.311  20.355  36.979  1.00  0.00     0.121 A 
ATOM      3  C   UNL     1      14.834  19.613  38.018  1.00  0.00     0.018 A 
ATOM      4  C   UNL     1      15.845  18.806  37.409  1.00  0.00     0.098 A 
ATOM      5  N   UNL     1      15.863  18.999  36.080  1.00  0.00    -0.168 NA
ENDROOT
BRANCH   1   6
ATOM      6  C   UNL     1      14.761  20.484  34.512  1.00  0.00     0.065 A 
ATOM      7  C   UNL     1      14.360  21.517  31.922  1.00  0.00    -0.003 A 
ATOM      8  C   UNL     1      15.151  20.378  32.111  1.00  0.00     0.012 A 
ATOM      9  C   UNL     1      13.786  22.150  33.032  1.00  0.00     0.012 A 
ATOM     10  C   UNL     1      15.346  19.860  33.398  1.00  0.00     0.029 A 
ATOM     11  C   UNL     1      13.980  21.634  34.320  1.00  0.00     0.029 A 
BRANCH   7  12
ATOM     12  C   UNL     1      14.146  22.119  30.582  1.00  0.00     0.071 C 
ATOM     13  O   UNL     1      13.077  22.594  30.231  1.00  0.00    -0.545 OA
ATOM     14  O   UNL     1      15.224  22.070  29.771  1.00  0.00    -0.545 OA
ENDBRANCH   7  12
ENDBRANCH   1   6
BRANCH   3  15
ATOM     15  C   UNL     1      14.416  19.685  39.456  1.00  0.00     0.152 C 
BRANCH  15  16
ATOM     16  N   UNL     1      14.384  21.046  39.996  1.00  0.00    -0.381 N 
ATOM     17  H   UNL     1      15.165  21.639  39.900  1.00  0.00     0.160 HD
BRANCH  16  18
ATOM     18  C   UNL     1      13.231  21.496  40.648  1.00  0.00     0.037 A 
ATOM     19  C   UNL     1      13.081  21.227  42.019  1.00  0.00     0.026 A 
ATOM     20  C   UNL     1      12.255  22.278  40.024  1.00  0.00     0.065 A 
ATOM     21  C   UNL     1      11.963  21.673  42.733  1.00  0.00     0.005 A 
ATOM     22  C   UNL     1      11.148  22.727  40.742  1.00  0.00     0.125 A 
ATOM     23  C   UNL     1      10.990  22.428  42.089  1.00  0.00     0.039 A 
ATOM     24  F   UNL     1      10.220  23.470  40.123  1.00  0.00    -0.207 F 
ENDBRANCH  16  18
ENDBRANCH  15  16
ENDBRANCH   3  15
BRANCH   4  25
ATOM     25  C   UNL     1      16.793  17.873  38.041  1.00  0.00     0.003 A 
ATOM     26  C   UNL     1      18.178  18.098  37.974  1.00  0.00     0.013 A 
ATOM     27  C   UNL     1      16.341  16.753  38.757  1.00  0.00     0.013 A 
ATOM     28  C   UNL     1      19.074  17.214  38.585  1.00  0.00     0.040 A 
ATOM     29  C   UNL     1      17.233  15.858  39.351  1.00  0.00     0.040 A 
ATOM     30  C   UNL     1      18.594  16.098  39.261  1.00  0.00     0.123 A 
ATOM     31  F   UNL     1      19.451  15.250  39.843  1.00  0.00    -0.207 F 
ENDBRANCH   4  25
TORSDOF 6
ENDMDL
MODEL 19
REMARK VINA RESULT:    -7.037      5.307      7.770
REMARK INTER + INTRA:         -11.216
REMARK INTER:                  -9.023
REMARK INTRA:                  -2.192
REMARK UNBOUND:                -1.710
REMARK SMILES O=C([O-])c1ccc(-n2cc(CNc3cccc(F)c3)c(-c3ccc(F)cc3)n2)cc1
REMARK SMILES IDX 8 1 9 2 10 3 20 4 28 5 7 6 4 7 30 8 5 9 29 10 6 11 2 12 1 13
REMARK SMILES IDX 3 14 11 15 12 16 13 18 14 19 19 20 15 21 17 22 16 23 18 24
REMARK SMILES IDX 21 25 27 26 22 27 26 28 23 29 24 30 25 31
REMARK H PARENT 12 17
ROOT
ATOM      1  N   UNL     1      13.590  21.726  37.312  1.00  0.00    -0.240 N 
ATOM      2  C   UNL     1      14.960  21.687  37.235  1.00  0.00     0.121 A 
ATOM      3  C   UNL     1      15.304  21.765  35.901  1.00  0.00     0.018 A 
ATOM      4  C   UNL     1      14.056  21.891  35.215  1.00  0.00     0.098 A 
ATOM      5  N   UNL     1      13.033  21.809  36.081  1.00  0.00    -0.168 NA
ENDROOT
BRANCH   1   6
ATOM      6  C   UNL     1      12.785  21.698  38.490  1.00  0.00     0.065 A 
ATOM      7  C   UNL     1      11.188  21.673  40.810  1.00  0.00    -0.003 A 
ATOM      8  C   UNL     1      11.961  20.556  40.477  1.00  0.00     0.012 A 
ATOM      9  C   UNL     1      11.198  22.795  39.973  1.00  0.00     0.012 A 
ATOM     10  C   UNL     1      12.760  20.570  39.325  1.00  0.00     0.029 A 
ATOM     11  C   UNL     1      11.997  22.812  38.822  1.00  0.00     0.029 A 
BRANCH   7  12
ATOM     12  C   UNL     1      10.304  21.695  42.004  1.00  0.00     0.071 C 
ATOM     13  O   UNL     1       9.550  20.777  42.287  1.00  0.00    -0.545 OA
ATOM     14  O   UNL     1      10.382  22.829  42.733  1.00  0.00    -0.545 OA
ENDBRANCH   7  12
ENDBRANCH   1   6
BRANCH   3  15
ATOM     15  C   UNL     1      16.695  21.740  35.343  1.00  0.00     0.152 C 
BRANCH  15  16
ATOM     16  N   UNL     1      17.111  23.003  34.730  1.00  0.00    -0.381 N 
ATOM     17  H   UNL     1      17.349  23.775  35.293  1.00  0.00     0.160 HD
BRANCH  16  18
ATOM     18  C   UNL     1      17.166  23.101  33.335  1.00  0.00     0.037 A 
ATOM     19  C   UNL     1      17.169  21.920  32.574  1.00  0.00     0.026 A 
ATOM     20  C   UNL     1      17.132  24.320  32.652  1.00  0.00     0.065 A 
ATOM     21  C   UNL     1      17.196  21.952  31.175  1.00  0.00     0.005 A 
ATOM     22  C   UNL     1      17.150  24.346  31.258  1.00  0.00     0.125 A 
ATOM     23  C   UNL     1      17.188  23.175  30.513  1.00  0.00     0.039 A 
ATOM     24  F   UNL     1      17.124  25.526  30.623  1.00  0.00    -0.207 F 
ENDBRANCH  16  18
ENDBRANCH  15  16
ENDBRANCH   3  15
BRANCH   4  25
ATOM     25  C   UNL     1      13.804  22.091  33.778  1.00  0.00     0.003 A 
ATOM     26  C   UNL     1      13.672  23.383  33.244  1.00  0.00     0.013 A 
ATOM     27  C   UNL     1      13.722  21.002  32.896  1.00  0.00     0.013 A 
ATOM     28  C   UNL     1      13.442  23.569  31.876  1.00  0.00     0.040 A 
ATOM     29  C   UNL     1      13.473  21.183  31.534  1.00  0.00     0.040 A 
ATOM     30  C   UNL     1      13.337  22.468  31.036  1.00  0.00     0.123 A 
ATOM     31  F   UNL     1      13.114  22.645  29.727  1.00  0.00    -0.207 F 
ENDBRANCH   4  25
TORSDOF 6
ENDMDL
MODEL 20
REMARK VINA RESULT:    -7.036      5.135      7.825
REMARK INTER + INTRA:         -11.213
REMARK INTER:                  -8.886
REMARK INTRA:                  -2.327
REMARK UNBOUND:                -1.710
REMARK SMILES O=C([O-])c1ccc(-n2cc(CNc3cccc(F)c3)c(-c3ccc(F)cc3)n2)cc1
REMARK SMILES IDX 8 1 9 2 10 3 20 4 28 5 7 6 4 7 30 8 5 9 29 10 6 11 2 12 1 13
REMARK SMILES IDX 3 14 11 15 12 16 13 18 14 19 19 20 15 21 17 22 16 23 18 24
REMARK SMILES IDX 21 25 27 26 22 27 26 28 23 29 24 30 25 31
REMARK H PARENT 12 17
ROOT
ATOM      1  N   UNL     1      13.259  21.625  37.088  1.00  0.00    -0.240 N 
ATOM      2  C   UNL     1      13.944  20.569  36.540  1.00  0.00     0.121 A 
ATOM      3  C   UNL     1      14.485  20.999  35.345  1.00  0.00     0.018 A 
ATOM      4  C   UNL     1      14.106  22.374  35.253  1.00  0.00     0.098 A 
ATOM      5  N   UNL     1      13.320  22.716  36.288  1.00  0.00    -0.168 NA
ENDROOT
BRANCH   1   6
ATOM      6  C   UNL     1      12.560  21.656  38.331  1.00  0.00     0.065 A 
ATOM      7  C   UNL     1      11.170  21.745  40.780  1.00  0.00    -0.003 A 
ATOM      8  C   UNL     1      11.934  20.622  40.446  1.00  0.00     0.012 A 
ATOM      9  C   UNL     1      11.085  22.815  39.880  1.00  0.00     0.012 A 
ATOM     10  C   UNL     1      12.630  20.579  39.230  1.00  0.00     0.029 A 
ATOM     11  C   UNL     1      11.781  22.775  38.665  1.00  0.00     0.029 A 
BRANCH   7  12
ATOM     12  C   UNL     1      10.392  21.826  42.043  1.00  0.00     0.071 C 
ATOM     13  O   UNL     1      10.353  22.833  42.733  1.00  0.00    -0.545 OA
ATOM     14  O   UNL     1       9.756  20.684  42.379  1.00  0.00    -0.545 OA
ENDBRANCH   7  12
ENDBRANCH   1   6
BRANCH   3  15
ATOM     15  C   UNL     1      15.300  20.174  34.396  1.00  0.00     0.152 C 
BRANCH  15  16
ATOM     16  N   UNL     1      14.541  19.665  33.250  1.00  0.00    -0.381 N 
ATOM     17  H   UNL     1      14.227  18.732  33.236  1.00  0.00     0.160 HD
BRANCH  16  18
ATOM     18  C   UNL     1      14.266  20.521  32.178  1.00  0.00     0.037 A 
ATOM     19  C   UNL     1      12.928  20.845  31.896  1.00  0.00     0.026 A 
ATOM     20  C   UNL     1      15.263  21.143  31.422  1.00  0.00     0.065 A 
ATOM     21  C   UNL     1      12.591  21.715  30.854  1.00  0.00     0.005 A 
ATOM     22  C   UNL     1      14.922  22.016  30.390  1.00  0.00     0.125 A 
ATOM     23  C   UNL     1      13.595  22.304  30.095  1.00  0.00     0.039 A 
ATOM     24  F   UNL     1      15.893  22.597  29.672  1.00  0.00    -0.207 F 
ENDBRANCH  16  18
ENDBRANCH  15  16
ENDBRANCH   3  15
BRANCH   4  25
ATOM     25  C   UNL     1      14.467  23.369  34.230  1.00  0.00     0.003 A 
ATOM     26  C   UNL     1      15.811  23.610  33.902  1.00  0.00     0.013 A 
ATOM     27  C   UNL     1      13.480  24.081  33.529  1.00  0.00     0.013 A 
ATOM     28  C   UNL     1      16.149  24.550  32.922  1.00  0.00     0.040 A 
ATOM     29  C   UNL     1      13.814  25.033  32.564  1.00  0.00     0.040 A 
ATOM     30  C   UNL     1      15.148  25.258  32.268  1.00  0.00     0.123 A 
ATOM     31  F   UNL     1      15.470  26.159  31.331  1.00  0.00    -0.207 F 
ENDBRANCH   4  25
TORSDOF 6
ENDMDL
