REMARK 999 siam chowdhury
REMARK 999 Computational and Medicinal Chemistry
REMARK 999 [Dr. Alam's Research Team] www.alamresearch.org
REMARK 999 Arkansas State University
REMARK 999 5sa23 ligand PDBQT (pH 7.4, MMFF94, Meeko)
REMARK 999 Created: 2026-09-25 02:09:02
REMARK SMILES O=C([O-])c1ccc(-n2cc(CNc3cccc(F)c3)c(-c3ccc(F)cc3)n2)cc1
REMARK SMILES IDX 8 1 9 2 10 3 20 4 28 5 7 6 4 7 30 8 5 9 29 10 6 11 2 12 1 13
REMARK SMILES IDX 3 14 11 15 12 16 13 18 14 19 19 20 15 21 17 22 16 23 18 24
REMARK SMILES IDX 21 25 27 26 22 27 26 28 23 29 24 30 25 31
REMARK H PARENT 12 17
ROOT
ATOM      1  N   UNL     1      -2.804   0.449  -0.204  1.00  0.00    -0.240 N 
ATOM      2  C   UNL     1      -3.794  -0.052   0.603  1.00  0.00     0.121 A 
ATOM      3  C   UNL     1      -4.999   0.427   0.131  1.00  0.00     0.018 A 
ATOM      4  C   UNL     1      -4.651   1.202  -1.019  1.00  0.00     0.098 A 
ATOM      5  N   UNL     1      -3.317   1.247  -1.170  1.00  0.00    -0.168 NA
ENDROOT
BRANCH   1   6
ATOM      6  C   UNL     1      -1.401   0.204  -0.113  1.00  0.00     0.065 A 
ATOM      7  C   UNL     1       1.373  -0.262   0.042  1.00  0.00    -0.003 A 
ATOM      8  C   UNL     1       0.499  -0.926   0.909  1.00  0.00     0.012 A 
ATOM      9  C   UNL     1       0.861   0.650  -0.889  1.00  0.00     0.012 A 
ATOM     10  C   UNL     1      -0.882  -0.699   0.829  1.00  0.00     0.029 A 
ATOM     11  C   UNL     1      -0.519   0.878  -0.972  1.00  0.00     0.029 A 
BRANCH   7  12
ATOM     12  C   UNL     1       2.845  -0.448   0.107  1.00  0.00     0.071 C 
ATOM     13  O   UNL     1       3.638   0.430  -0.197  1.00  0.00    -0.545 OA
ATOM     14  O   UNL     1       3.234  -1.679   0.502  1.00  0.00    -0.545 OA
ENDBRANCH   7  12
ENDBRANCH   1   6
BRANCH   3  15
ATOM     15  C   UNL     1      -6.351   0.152   0.716  1.00  0.00     0.152 C 
BRANCH  15  16
ATOM     16  N   UNL     1      -6.985  -1.063   0.198  1.00  0.00    -0.381 N 
ATOM     17  H   UNL     1      -6.441  -1.853  -0.023  1.00  0.00     0.160 HD
BRANCH  16  18
ATOM     18  C   UNL     1      -8.373  -1.088   0.022  1.00  0.00     0.037 A 
ATOM     19  C   UNL     1      -8.910  -1.872  -1.013  1.00  0.00     0.026 A 
ATOM     20  C   UNL     1      -9.264  -0.439   0.881  1.00  0.00     0.065 A 
ATOM     21  C   UNL     1     -10.291  -1.959  -1.223  1.00  0.00     0.005 A 
ATOM     22  C   UNL     1     -10.639  -0.536   0.673  1.00  0.00     0.125 A 
ATOM     23  C   UNL     1     -11.161  -1.285  -0.374  1.00  0.00     0.039 A 
ATOM     24  F   UNL     1     -11.476   0.100   1.504  1.00  0.00    -0.207 F 
ENDBRANCH  16  18
ENDBRANCH  15  16
ENDBRANCH   3  15
BRANCH   4  25
ATOM     25  C   UNL     1      -5.534   1.889  -1.976  1.00  0.00     0.003 A 
ATOM     26  C   UNL     1      -5.124   3.071  -2.614  1.00  0.00     0.013 A 
ATOM     27  C   UNL     1      -6.795   1.366  -2.305  1.00  0.00     0.013 A 
ATOM     28  C   UNL     1      -5.963   3.715  -3.530  1.00  0.00     0.040 A 
ATOM     29  C   UNL     1      -7.643   2.016  -3.204  1.00  0.00     0.040 A 
ATOM     30  C   UNL     1      -7.217   3.186  -3.811  1.00  0.00     0.123 A 
ATOM     31  F   UNL     1      -8.022   3.803  -4.686  1.00  0.00    -0.207 F 
ENDBRANCH   4  25
TORSDOF 6
