REMARK 999 siam chowdhury
REMARK 999 Computational and Medicinal Chemistry
REMARK 999 [Dr. Alam's Research Team] www.alamresearch.org
REMARK 999 Arkansas State University
REMARK 999 22sa23 ligand PDBQT (pH 7.4, MMFF94, Meeko)
REMARK 999 Created: 2026-09-27 01:56:31
REMARK SMILES O=C([O-])c1ccc(-n2cc(CNc3ccc(F)c(C(F)(F)F)c3)c(-c3ccc(F)cc3)n2)cc1
REMARK SMILES IDX 11 1 10 2 8 3 32 4 9 5 24 6 7 7 4 8 5 9 34 10 6 11 33 12
REMARK SMILES IDX 2 13 1 14 3 15 25 16 31 17 26 18 30 19 27 20 28 21 29 22
REMARK SMILES IDX 12 23 13 25 23 26 14 27 18 28 15 29 16 30 17 31 19 32 20 33
REMARK SMILES IDX 21 34 22 35
REMARK H PARENT 12 24
ROOT
ATOM      1  C   UNL     1       6.138  -7.319  -3.512  1.00  0.00     0.152 C 
ENDROOT
BRANCH   1   2
ATOM      2  C   UNL     1       5.881  -5.851  -3.585  1.00  0.00     0.018 A 
ATOM      3  N   UNL     1       5.176  -3.814  -3.075  1.00  0.00    -0.240 N 
ATOM      4  N   UNL     1       5.575  -3.734  -4.368  1.00  0.00    -0.168 NA
ATOM      5  C   UNL     1       5.397  -5.067  -2.562  1.00  0.00     0.121 A 
ATOM      6  C   UNL     1       6.048  -4.954  -4.683  1.00  0.00     0.098 A 
BRANCH   3   7
ATOM      7  C   UNL     1       4.542  -2.722  -2.410  1.00  0.00     0.065 A 
ATOM      8  C   UNL     1       3.095  -0.656  -1.163  1.00  0.00    -0.003 A 
ATOM      9  C   UNL     1       3.461  -0.543  -2.510  1.00  0.00     0.012 A 
ATOM     10  C   UNL     1       3.475  -1.789  -0.437  1.00  0.00     0.012 A 
ATOM     11  C   UNL     1       4.196  -1.567  -3.128  1.00  0.00     0.029 A 
ATOM     12  C   UNL     1       4.196  -2.815  -1.054  1.00  0.00     0.029 A 
BRANCH   8  13
ATOM     13  C   UNL     1       2.246   0.348  -0.467  1.00  0.00     0.071 C 
ATOM     14  O   UNL     1       1.494   0.051   0.445  1.00  0.00    -0.545 OA
ATOM     15  O   UNL     1       2.408   1.611  -0.907  1.00  0.00    -0.545 OA
ENDBRANCH   8  13
ENDBRANCH   3   7
BRANCH   6  16
ATOM     16  C   UNL     1       6.616  -5.233  -6.013  1.00  0.00     0.003 A 
ATOM     17  C   UNL     1       6.144  -4.557  -7.151  1.00  0.00     0.013 A 
ATOM     18  C   UNL     1       7.651  -6.170  -6.179  1.00  0.00     0.013 A 
ATOM     19  C   UNL     1       6.678  -4.830  -8.416  1.00  0.00     0.040 A 
ATOM     20  C   UNL     1       8.175  -6.452  -7.444  1.00  0.00     0.040 A 
ATOM     21  C   UNL     1       7.683  -5.777  -8.551  1.00  0.00     0.123 A 
ATOM     22  F   UNL     1       8.191  -6.040  -9.763  1.00  0.00    -0.207 F 
ENDBRANCH   6  16
ENDBRANCH   1   2
BRANCH   1  23
ATOM     23  N   UNL     1       7.484  -7.660  -3.061  1.00  0.00    -0.381 N 
ATOM     24  H   UNL     1       8.114  -6.946  -2.814  1.00  0.00     0.160 HD
BRANCH  23  25
ATOM     25  C   UNL     1       7.878  -8.993  -2.979  1.00  0.00     0.035 A 
ATOM     26  C   UNL     1       9.002  -9.306  -2.199  1.00  0.00     0.041 A 
ATOM     27  C   UNL     1       7.314 -10.018  -3.745  1.00  0.00     0.029 A 
ATOM     28  C   UNL     1       9.513 -10.615  -2.120  1.00  0.00     0.093 A 
ATOM     29  C   UNL     1       7.812 -11.322  -3.682  1.00  0.00     0.042 A 
ATOM     30  C   UNL     1       8.899 -11.611  -2.868  1.00  0.00     0.135 A 
ATOM     31  F   UNL     1       9.351 -12.870  -2.832  1.00  0.00    -0.206 F 
BRANCH  28  32
ATOM     32  C   UNL     1      10.698 -10.904  -1.252  1.00  0.00     0.419 C 
ATOM     33  F   UNL     1      11.097 -12.203  -1.225  1.00  0.00    -0.166 F 
ATOM     34  F   UNL     1      11.795 -10.187  -1.627  1.00  0.00    -0.166 F 
ATOM     35  F   UNL     1      10.469 -10.562   0.049  1.00  0.00    -0.166 F 
ENDBRANCH  28  32
ENDBRANCH  23  25
ENDBRANCH   1  23
TORSDOF 7
