REMARK 999 siam chowdhury
REMARK 999 Computational and Medicinal Chemistry
REMARK 999 [Dr. Alam's Research Team] www.alamresearch.org
REMARK 999 Arkansas State University
REMARK 999 17sa23 Vina docking output (7L00 FabK)
REMARK 999 Created: 2026-09-25 02:11:13
MODEL 1
REMARK VINA RESULT:    -9.212      0.000      0.000
REMARK INTER + INTRA:         -14.318
REMARK INTER:                 -12.443
REMARK INTRA:                  -1.875
REMARK UNBOUND:                -1.875
REMARK SMILES O=C([O-])c1ccc(-n2cc(CNc3ccc(F)c(F)c3)c(-c3ccc(F)cc3)n2)cc1
REMARK SMILES IDX 29 1 21 2 10 3 9 4 8 5 7 6 4 7 31 8 5 9 30 10 6 11 2 12 1 13
REMARK SMILES IDX 3 14 22 15 28 16 23 17 27 18 24 19 25 20 26 21 11 22 12 23
REMARK SMILES IDX 13 25 20 26 14 27 18 28 15 29 16 30 19 31 17 32
REMARK H PARENT 12 24
ROOT
ATOM      1  N   UNL     1      13.774  19.387  38.908  1.00  0.00    -0.168 NA
ATOM      2  C   UNL     1      13.975  20.647  39.336  1.00  0.00     0.098 A 
ATOM      3  C   UNL     1      15.181  21.174  38.785  1.00  0.00     0.018 A 
ATOM      4  C   UNL     1      15.745  20.118  38.102  1.00  0.00     0.121 A 
ATOM      5  N   UNL     1      14.858  19.073  38.158  1.00  0.00    -0.240 N 
ENDROOT
BRANCH   5   6
ATOM      6  C   UNL     1      14.971  17.821  37.482  1.00  0.00     0.065 A 
ATOM      7  C   UNL     1      15.324  15.438  36.027  1.00  0.00    -0.003 A 
ATOM      8  C   UNL     1      16.085  15.685  37.172  1.00  0.00     0.012 A 
ATOM      9  C   UNL     1      14.368  16.378  35.617  1.00  0.00     0.012 A 
ATOM     10  C   UNL     1      15.910  16.866  37.899  1.00  0.00     0.029 A 
ATOM     11  C   UNL     1      14.182  17.558  36.353  1.00  0.00     0.029 A 
BRANCH   7  12
ATOM     12  C   UNL     1      15.631  14.203  35.256  1.00  0.00     0.071 C 
ATOM     13  O   UNL     1      16.452  13.383  35.629  1.00  0.00    -0.545 OA
ATOM     14  O   UNL     1      14.897  14.052  34.133  1.00  0.00    -0.545 OA
ENDBRANCH   7  12
ENDBRANCH   5   6
BRANCH   2  15
ATOM     15  C   UNL     1      13.008  21.313  40.225  1.00  0.00     0.003 A 
ATOM     16  C   UNL     1      13.170  21.270  41.619  1.00  0.00     0.013 A 
ATOM     17  C   UNL     1      11.907  22.015  39.705  1.00  0.00     0.013 A 
ATOM     18  C   UNL     1      12.243  21.891  42.466  1.00  0.00     0.040 A 
ATOM     19  C   UNL     1      10.974  22.624  40.548  1.00  0.00     0.040 A 
ATOM     20  C   UNL     1      11.152  22.555  41.921  1.00  0.00     0.123 A 
ATOM     21  F   UNL     1      10.262  23.144  42.732  1.00  0.00    -0.207 F 
ENDBRANCH   2  15
BRANCH   3  22
ATOM     22  C   UNL     1      15.748  22.551  38.888  1.00  0.00     0.152 C 
BRANCH  22  23
ATOM     23  N   UNL     1      15.503  23.375  37.709  1.00  0.00    -0.381 N 
ATOM     24  H   UNL     1      16.240  23.575  37.087  1.00  0.00     0.160 HD
BRANCH  23  25
ATOM     25  C   UNL     1      14.227  23.878  37.460  1.00  0.00     0.037 A 
ATOM     26  C   UNL     1      13.312  23.266  36.595  1.00  0.00     0.068 A 
ATOM     27  C   UNL     1      13.779  24.967  38.226  1.00  0.00     0.029 A 
ATOM     28  C   UNL     1      12.021  23.773  36.454  1.00  0.00     0.160 A 
ATOM     29  C   UNL     1      12.486  25.479  38.081  1.00  0.00     0.044 A 
ATOM     30  C   UNL     1      11.613  24.878  37.186  1.00  0.00     0.158 A 
ATOM     31  F   UNL     1      11.171  23.171  35.609  1.00  0.00    -0.204 F 
ATOM     32  F   UNL     1      10.371  25.361  37.047  1.00  0.00    -0.204 F 
ENDBRANCH  23  25
ENDBRANCH  22  23
ENDBRANCH   3  22
TORSDOF 6
ENDMDL
MODEL 2
REMARK VINA RESULT:    -8.383      1.356      1.659
REMARK INTER + INTRA:         -13.199
REMARK INTER:                 -12.044
REMARK INTRA:                  -1.155
REMARK UNBOUND:                -1.875
REMARK SMILES O=C([O-])c1ccc(-n2cc(CNc3ccc(F)c(F)c3)c(-c3ccc(F)cc3)n2)cc1
REMARK SMILES IDX 29 1 21 2 10 3 9 4 8 5 7 6 4 7 31 8 5 9 30 10 6 11 2 12 1 13
REMARK SMILES IDX 3 14 22 15 28 16 23 17 27 18 24 19 25 20 26 21 11 22 12 23
REMARK SMILES IDX 13 25 20 26 14 27 18 28 15 29 16 30 19 31 17 32
REMARK H PARENT 12 24
ROOT
ATOM      1  N   UNL     1      13.520  19.723  38.554  1.00  0.00    -0.168 NA
ATOM      2  C   UNL     1      13.754  20.927  39.108  1.00  0.00     0.098 A 
ATOM      3  C   UNL     1      14.979  21.472  38.617  1.00  0.00     0.018 A 
ATOM      4  C   UNL     1      15.515  20.475  37.831  1.00  0.00     0.121 A 
ATOM      5  N   UNL     1      14.599  19.455  37.779  1.00  0.00    -0.240 N 
ENDROOT
BRANCH   5   6
ATOM      6  C   UNL     1      14.679  18.276  36.980  1.00  0.00     0.065 A 
ATOM      7  C   UNL     1      14.646  15.920  35.440  1.00  0.00    -0.003 A 
ATOM      8  C   UNL     1      14.449  17.164  34.833  1.00  0.00     0.012 A 
ATOM      9  C   UNL     1      14.878  15.855  36.820  1.00  0.00     0.012 A 
ATOM     10  C   UNL     1      14.468  18.335  35.594  1.00  0.00     0.029 A 
ATOM     11  C   UNL     1      14.911  17.031  37.584  1.00  0.00     0.029 A 
BRANCH   7  12
ATOM     12  C   UNL     1      14.520  14.713  34.579  1.00  0.00     0.071 C 
ATOM     13  O   UNL     1      15.436  13.927  34.413  1.00  0.00    -0.545 OA
ATOM     14  O   UNL     1      13.297  14.545  34.033  1.00  0.00    -0.545 OA
ENDBRANCH   7  12
ENDBRANCH   5   6
BRANCH   2  15
ATOM     15  C   UNL     1      12.803  21.528  40.058  1.00  0.00     0.003 A 
ATOM     16  C   UNL     1      13.013  21.427  41.442  1.00  0.00     0.013 A 
ATOM     17  C   UNL     1      11.667  22.223  39.606  1.00  0.00     0.013 A 
ATOM     18  C   UNL     1      12.100  21.986  42.346  1.00  0.00     0.040 A 
ATOM     19  C   UNL     1      10.749  22.769  40.506  1.00  0.00     0.040 A 
ATOM     20  C   UNL     1      10.975  22.644  41.868  1.00  0.00     0.123 A 
ATOM     21  F   UNL     1      10.099  23.173  42.733  1.00  0.00    -0.207 F 
ENDBRANCH   2  15
BRANCH   3  22
ATOM     22  C   UNL     1      15.585  22.814  38.861  1.00  0.00     0.152 C 
BRANCH  22  23
ATOM     23  N   UNL     1      14.601  23.877  39.038  1.00  0.00    -0.381 N 
ATOM     24  H   UNL     1      14.278  24.103  39.940  1.00  0.00     0.160 HD
BRANCH  23  25
ATOM     25  C   UNL     1      14.119  24.575  37.931  1.00  0.00     0.037 A 
ATOM     26  C   UNL     1      14.706  24.507  36.661  1.00  0.00     0.068 A 
ATOM     27  C   UNL     1      12.901  25.263  38.055  1.00  0.00     0.029 A 
ATOM     28  C   UNL     1      14.126  25.162  35.576  1.00  0.00     0.160 A 
ATOM     29  C   UNL     1      12.323  25.926  36.967  1.00  0.00     0.044 A 
ATOM     30  C   UNL     1      12.947  25.875  35.730  1.00  0.00     0.158 A 
ATOM     31  F   UNL     1      14.718  25.087  34.375  1.00  0.00    -0.204 F 
ATOM     32  F   UNL     1      12.394  26.503  34.684  1.00  0.00    -0.204 F 
ENDBRANCH  23  25
ENDBRANCH  22  23
ENDBRANCH   3  22
TORSDOF 6
ENDMDL
MODEL 3
REMARK VINA RESULT:    -8.325      4.781      8.478
REMARK INTER + INTRA:         -13.120
REMARK INTER:                 -11.369
REMARK INTRA:                  -1.751
REMARK UNBOUND:                -1.875
REMARK SMILES O=C([O-])c1ccc(-n2cc(CNc3ccc(F)c(F)c3)c(-c3ccc(F)cc3)n2)cc1
REMARK SMILES IDX 29 1 21 2 10 3 9 4 8 5 7 6 4 7 31 8 5 9 30 10 6 11 2 12 1 13
REMARK SMILES IDX 3 14 22 15 28 16 23 17 27 18 24 19 25 20 26 21 11 22 12 23
REMARK SMILES IDX 13 25 20 26 14 27 18 28 15 29 16 30 19 31 17 32
REMARK H PARENT 12 24
ROOT
ATOM      1  N   UNL     1      14.164  19.860  37.230  1.00  0.00    -0.168 NA
ATOM      2  C   UNL     1      15.085  19.052  36.672  1.00  0.00     0.098 A 
ATOM      3  C   UNL     1      15.686  18.221  37.664  1.00  0.00     0.018 A 
ATOM      4  C   UNL     1      15.155  18.661  38.858  1.00  0.00     0.121 A 
ATOM      5  N   UNL     1      14.216  19.616  38.562  1.00  0.00    -0.240 N 
ENDROOT
BRANCH   5   6
ATOM      6  C   UNL     1      13.330  20.254  39.481  1.00  0.00     0.065 A 
ATOM      7  C   UNL     1      11.466  21.352  41.281  1.00  0.00    -0.003 A 
ATOM      8  C   UNL     1      12.572  20.643  41.756  1.00  0.00     0.012 A 
ATOM      9  C   UNL     1      11.300  21.530  39.901  1.00  0.00     0.012 A 
ATOM     10  C   UNL     1      13.501  20.098  40.865  1.00  0.00     0.029 A 
ATOM     11  C   UNL     1      12.238  20.996  39.005  1.00  0.00     0.029 A 
BRANCH   7  12
ATOM     12  C   UNL     1      10.474  21.822  42.286  1.00  0.00     0.071 C 
ATOM     13  O   UNL     1      10.475  22.957  42.730  1.00  0.00    -0.545 OA
ATOM     14  O   UNL     1       9.554  20.897  42.632  1.00  0.00    -0.545 OA
ENDBRANCH   7  12
ENDBRANCH   5   6
BRANCH   2  15
ATOM     15  C   UNL     1      15.342  19.077  35.222  1.00  0.00     0.003 A 
ATOM     16  C   UNL     1      16.339  19.908  34.686  1.00  0.00     0.013 A 
ATOM     17  C   UNL     1      14.607  18.266  34.340  1.00  0.00     0.013 A 
ATOM     18  C   UNL     1      16.574  19.943  33.306  1.00  0.00     0.040 A 
ATOM     19  C   UNL     1      14.831  18.310  32.962  1.00  0.00     0.040 A 
ATOM     20  C   UNL     1      15.813  19.149  32.458  1.00  0.00     0.123 A 
ATOM     21  F   UNL     1      16.034  19.187  31.138  1.00  0.00    -0.207 F 
ENDBRANCH   2  15
BRANCH   3  22
ATOM     22  C   UNL     1      16.666  17.107  37.501  1.00  0.00     0.152 C 
BRANCH  22  23
ATOM     23  N   UNL     1      16.064  15.780  37.588  1.00  0.00    -0.381 N 
ATOM     24  H   UNL     1      16.370  15.145  38.275  1.00  0.00     0.160 HD
BRANCH  23  25
ATOM     25  C   UNL     1      15.055  15.410  36.699  1.00  0.00     0.037 A 
ATOM     26  C   UNL     1      13.698  15.671  36.922  1.00  0.00     0.068 A 
ATOM     27  C   UNL     1      15.426  14.886  35.449  1.00  0.00     0.029 A 
ATOM     28  C   UNL     1      12.746  15.352  35.955  1.00  0.00     0.160 A 
ATOM     29  C   UNL     1      14.471  14.560  34.482  1.00  0.00     0.044 A 
ATOM     30  C   UNL     1      13.129  14.791  34.746  1.00  0.00     0.158 A 
ATOM     31  F   UNL     1      11.452  15.603  36.203  1.00  0.00    -0.204 F 
ATOM     32  F   UNL     1      12.211  14.486  33.819  1.00  0.00    -0.204 F 
ENDBRANCH  23  25
ENDBRANCH  22  23
ENDBRANCH   3  22
TORSDOF 6
ENDMDL
MODEL 4
REMARK VINA RESULT:    -8.130      5.595      8.426
REMARK INTER + INTRA:         -12.857
REMARK INTER:                 -11.160
REMARK INTRA:                  -1.697
REMARK UNBOUND:                -1.875
REMARK SMILES O=C([O-])c1ccc(-n2cc(CNc3ccc(F)c(F)c3)c(-c3ccc(F)cc3)n2)cc1
REMARK SMILES IDX 29 1 21 2 10 3 9 4 8 5 7 6 4 7 31 8 5 9 30 10 6 11 2 12 1 13
REMARK SMILES IDX 3 14 22 15 28 16 23 17 27 18 24 19 25 20 26 21 11 22 12 23
REMARK SMILES IDX 13 25 20 26 14 27 18 28 15 29 16 30 19 31 17 32
REMARK H PARENT 12 24
ROOT
ATOM      1  N   UNL     1      12.244  16.707  33.507  1.00  0.00    -0.168 NA
ATOM      2  C   UNL     1      13.473  16.670  34.055  1.00  0.00     0.098 A 
ATOM      3  C   UNL     1      13.744  15.373  34.585  1.00  0.00     0.018 A 
ATOM      4  C   UNL     1      12.565  14.676  34.426  1.00  0.00     0.121 A 
ATOM      5  N   UNL     1      11.699  15.488  33.739  1.00  0.00    -0.240 N 
ENDROOT
BRANCH   5   6
ATOM      6  C   UNL     1      10.408  15.133  33.245  1.00  0.00     0.065 A 
ATOM      7  C   UNL     1       7.811  14.624  32.287  1.00  0.00    -0.003 A 
ATOM      8  C   UNL     1       8.856  14.876  31.394  1.00  0.00     0.012 A 
ATOM      9  C   UNL     1       8.068  14.608  33.664  1.00  0.00     0.012 A 
ATOM     10  C   UNL     1      10.147  15.126  31.866  1.00  0.00     0.029 A 
ATOM     11  C   UNL     1       9.367  14.847  34.140  1.00  0.00     0.029 A 
BRANCH   7  12
ATOM     12  C   UNL     1       6.448  14.458  31.713  1.00  0.00     0.071 C 
ATOM     13  O   UNL     1       5.472  14.208  32.400  1.00  0.00    -0.545 OA
ATOM     14  O   UNL     1       6.380  14.645  30.378  1.00  0.00    -0.545 OA
ENDBRANCH   7  12
ENDBRANCH   5   6
BRANCH   2  15
ATOM     15  C   UNL     1      14.353  17.851  34.034  1.00  0.00     0.003 A 
ATOM     16  C   UNL     1      14.928  18.295  32.833  1.00  0.00     0.013 A 
ATOM     17  C   UNL     1      14.632  18.569  35.211  1.00  0.00     0.013 A 
ATOM     18  C   UNL     1      15.776  19.409  32.816  1.00  0.00     0.040 A 
ATOM     19  C   UNL     1      15.489  19.672  35.198  1.00  0.00     0.040 A 
ATOM     20  C   UNL     1      16.053  20.081  33.999  1.00  0.00     0.123 A 
ATOM     21  F   UNL     1      16.869  21.143  33.983  1.00  0.00    -0.207 F 
ENDBRANCH   2  15
BRANCH   3  22
ATOM     22  C   UNL     1      15.003  14.836  35.182  1.00  0.00     0.152 C 
BRANCH  22  23
ATOM     23  N   UNL     1      14.939  14.666  36.630  1.00  0.00    -0.381 N 
ATOM     24  H   UNL     1      14.649  13.807  37.012  1.00  0.00     0.160 HD
BRANCH  23  25
ATOM     25  C   UNL     1      15.290  15.720  37.473  1.00  0.00     0.037 A 
ATOM     26  C   UNL     1      16.607  16.156  37.655  1.00  0.00     0.068 A 
ATOM     27  C   UNL     1      14.260  16.480  38.055  1.00  0.00     0.029 A 
ATOM     28  C   UNL     1      16.883  17.270  38.447  1.00  0.00     0.160 A 
ATOM     29  C   UNL     1      14.538  17.593  38.854  1.00  0.00     0.044 A 
ATOM     30  C   UNL     1      15.855  17.979  39.050  1.00  0.00     0.158 A 
ATOM     31  F   UNL     1      18.157  17.656  38.611  1.00  0.00    -0.204 F 
ATOM     32  F   UNL     1      16.125  19.048  39.810  1.00  0.00    -0.204 F 
ENDBRANCH  23  25
ENDBRANCH  22  23
ENDBRANCH   3  22
TORSDOF 6
ENDMDL
MODEL 5
REMARK VINA RESULT:    -8.100      1.388      2.100
REMARK INTER + INTRA:         -12.816
REMARK INTER:                 -11.722
REMARK INTRA:                  -1.093
REMARK UNBOUND:                -1.875
REMARK SMILES O=C([O-])c1ccc(-n2cc(CNc3ccc(F)c(F)c3)c(-c3ccc(F)cc3)n2)cc1
REMARK SMILES IDX 29 1 21 2 10 3 9 4 8 5 7 6 4 7 31 8 5 9 30 10 6 11 2 12 1 13
REMARK SMILES IDX 3 14 22 15 28 16 23 17 27 18 24 19 25 20 26 21 11 22 12 23
REMARK SMILES IDX 13 25 20 26 14 27 18 28 15 29 16 30 19 31 17 32
REMARK H PARENT 12 24
ROOT
ATOM      1  N   UNL     1      13.307  19.395  38.366  1.00  0.00    -0.168 NA
ATOM      2  C   UNL     1      13.690  20.548  38.945  1.00  0.00     0.098 A 
ATOM      3  C   UNL     1      14.953  20.969  38.430  1.00  0.00     0.018 A 
ATOM      4  C   UNL     1      15.353  19.943  37.601  1.00  0.00     0.121 A 
ATOM      5  N   UNL     1      14.328  19.033  37.550  1.00  0.00    -0.240 N 
ENDROOT
BRANCH   5   6
ATOM      6  C   UNL     1      14.254  17.877  36.717  1.00  0.00     0.065 A 
ATOM      7  C   UNL     1      13.914  15.626  35.061  1.00  0.00    -0.003 A 
ATOM      8  C   UNL     1      14.246  16.866  34.509  1.00  0.00     0.012 A 
ATOM      9  C   UNL     1      13.768  15.507  36.450  1.00  0.00     0.012 A 
ATOM     10  C   UNL     1      14.419  17.985  35.328  1.00  0.00     0.029 A 
ATOM     11  C   UNL     1      13.954  16.626  37.276  1.00  0.00     0.029 A 
BRANCH   7  12
ATOM     12  C   UNL     1      13.656  14.505  34.118  1.00  0.00     0.071 C 
ATOM     13  O   UNL     1      12.537  14.218  33.729  1.00  0.00    -0.545 OA
ATOM     14  O   UNL     1      14.768  13.861  33.704  1.00  0.00    -0.545 OA
ENDBRANCH   7  12
ENDBRANCH   5   6
BRANCH   2  15
ATOM     15  C   UNL     1      12.838  21.221  39.940  1.00  0.00     0.003 A 
ATOM     16  C   UNL     1      11.684  21.914  39.543  1.00  0.00     0.013 A 
ATOM     17  C   UNL     1      13.152  21.181  41.310  1.00  0.00     0.013 A 
ATOM     18  C   UNL     1      10.881  22.566  40.488  1.00  0.00     0.040 A 
ATOM     19  C   UNL     1      12.361  21.842  42.252  1.00  0.00     0.040 A 
ATOM     20  C   UNL     1      11.233  22.530  41.831  1.00  0.00     0.123 A 
ATOM     21  F   UNL     1      10.469  23.159  42.733  1.00  0.00    -0.207 F 
ENDBRANCH   2  15
BRANCH   3  22
ATOM     22  C   UNL     1      15.711  22.228  38.691  1.00  0.00     0.152 C 
BRANCH  22  23
ATOM     23  N   UNL     1      14.864  23.352  39.078  1.00  0.00    -0.381 N 
ATOM     24  H   UNL     1      14.747  23.574  40.029  1.00  0.00     0.160 HD
BRANCH  23  25
ATOM     25  C   UNL     1      14.223  24.113  38.100  1.00  0.00     0.037 A 
ATOM     26  C   UNL     1      13.141  24.960  38.370  1.00  0.00     0.068 A 
ATOM     27  C   UNL     1      14.780  24.148  36.811  1.00  0.00     0.029 A 
ATOM     28  C   UNL     1      12.598  25.758  37.364  1.00  0.00     0.160 A 
ATOM     29  C   UNL     1      14.230  24.944  35.801  1.00  0.00     0.044 A 
ATOM     30  C   UNL     1      13.133  25.743  36.085  1.00  0.00     0.158 A 
ATOM     31  F   UNL     1      11.554  26.551  37.650  1.00  0.00    -0.204 F 
ATOM     32  F   UNL     1      12.607  26.511  35.122  1.00  0.00    -0.204 F 
ENDBRANCH  23  25
ENDBRANCH  22  23
ENDBRANCH   3  22
TORSDOF 6
ENDMDL
MODEL 6
REMARK VINA RESULT:    -7.819      5.089      8.544
REMARK INTER + INTRA:         -12.436
REMARK INTER:                 -11.342
REMARK INTRA:                  -1.094
REMARK UNBOUND:                -1.875
REMARK SMILES O=C([O-])c1ccc(-n2cc(CNc3ccc(F)c(F)c3)c(-c3ccc(F)cc3)n2)cc1
REMARK SMILES IDX 29 1 21 2 10 3 9 4 8 5 7 6 4 7 31 8 5 9 30 10 6 11 2 12 1 13
REMARK SMILES IDX 3 14 22 15 28 16 23 17 27 18 24 19 25 20 26 21 11 22 12 23
REMARK SMILES IDX 13 25 20 26 14 27 18 28 15 29 16 30 19 31 17 32
REMARK H PARENT 12 24
ROOT
ATOM      1  N   UNL     1      15.492  19.796  37.832  1.00  0.00    -0.168 NA
ATOM      2  C   UNL     1      15.692  18.513  37.476  1.00  0.00     0.098 A 
ATOM      3  C   UNL     1      14.846  18.162  36.382  1.00  0.00     0.018 A 
ATOM      4  C   UNL     1      14.051  19.270  36.184  1.00  0.00     0.121 A 
ATOM      5  N   UNL     1      14.489  20.248  37.040  1.00  0.00    -0.240 N 
ENDROOT
BRANCH   5   6
ATOM      6  C   UNL     1      14.040  21.601  37.091  1.00  0.00     0.065 A 
ATOM      7  C   UNL     1      13.254  24.291  37.362  1.00  0.00    -0.003 A 
ATOM      8  C   UNL     1      14.378  23.956  36.601  1.00  0.00     0.012 A 
ATOM      9  C   UNL     1      12.509  23.275  37.975  1.00  0.00     0.012 A 
ATOM     10  C   UNL     1      14.769  22.622  36.462  1.00  0.00     0.029 A 
ATOM     11  C   UNL     1      12.892  21.933  37.827  1.00  0.00     0.029 A 
BRANCH   7  12
ATOM     12  C   UNL     1      12.955  25.738  37.539  1.00  0.00     0.071 C 
ATOM     13  O   UNL     1      13.599  26.455  38.284  1.00  0.00    -0.545 OA
ATOM     14  O   UNL     1      11.938  26.192  36.776  1.00  0.00    -0.545 OA
ENDBRANCH   7  12
ENDBRANCH   5   6
BRANCH   2  15
ATOM     15  C   UNL     1      16.690  17.678  38.164  1.00  0.00     0.003 A 
ATOM     16  C   UNL     1      18.063  17.900  37.975  1.00  0.00     0.013 A 
ATOM     17  C   UNL     1      16.297  16.644  39.034  1.00  0.00     0.013 A 
ATOM     18  C   UNL     1      19.013  17.096  38.618  1.00  0.00     0.040 A 
ATOM     19  C   UNL     1      17.242  15.833  39.665  1.00  0.00     0.040 A 
ATOM     20  C   UNL     1      18.592  16.067  39.450  1.00  0.00     0.123 A 
ATOM     21  F   UNL     1      19.500  15.294  40.060  1.00  0.00    -0.207 F 
ENDBRANCH   2  15
BRANCH   3  22
ATOM     22  C   UNL     1      14.796  16.898  35.589  1.00  0.00     0.152 C 
BRANCH  22  23
ATOM     23  N   UNL     1      14.002  15.845  36.214  1.00  0.00    -0.381 N 
ATOM     24  H   UNL     1      14.320  15.415  37.041  1.00  0.00     0.160 HD
BRANCH  23  25
ATOM     25  C   UNL     1      12.794  15.448  35.643  1.00  0.00     0.037 A 
ATOM     26  C   UNL     1      11.662  15.105  36.393  1.00  0.00     0.068 A 
ATOM     27  C   UNL     1      12.655  15.539  34.248  1.00  0.00     0.029 A 
ATOM     28  C   UNL     1      10.459  14.798  35.760  1.00  0.00     0.160 A 
ATOM     29  C   UNL     1      11.449  15.225  33.613  1.00  0.00     0.044 A 
ATOM     30  C   UNL     1      10.355  14.848  34.378  1.00  0.00     0.158 A 
ATOM     31  F   UNL     1       9.395  14.462  36.505  1.00  0.00    -0.204 F 
ATOM     32  F   UNL     1       9.196  14.552  33.775  1.00  0.00    -0.204 F 
ENDBRANCH  23  25
ENDBRANCH  22  23
ENDBRANCH   3  22
TORSDOF 6
ENDMDL
MODEL 7
REMARK VINA RESULT:    -7.798      4.944      8.669
REMARK INTER + INTRA:         -12.408
REMARK INTER:                 -11.091
REMARK INTRA:                  -1.318
REMARK UNBOUND:                -1.875
REMARK SMILES O=C([O-])c1ccc(-n2cc(CNc3ccc(F)c(F)c3)c(-c3ccc(F)cc3)n2)cc1
REMARK SMILES IDX 29 1 21 2 10 3 9 4 8 5 7 6 4 7 31 8 5 9 30 10 6 11 2 12 1 13
REMARK SMILES IDX 3 14 22 15 28 16 23 17 27 18 24 19 25 20 26 21 11 22 12 23
REMARK SMILES IDX 13 25 20 26 14 27 18 28 15 29 16 30 19 31 17 32
REMARK H PARENT 12 24
ROOT
ATOM      1  N   UNL     1      13.890  20.229  36.397  1.00  0.00    -0.168 NA
ATOM      2  C   UNL     1      14.447  19.311  35.587  1.00  0.00     0.098 A 
ATOM      3  C   UNL     1      14.476  18.034  36.225  1.00  0.00     0.018 A 
ATOM      4  C   UNL     1      14.014  18.271  37.502  1.00  0.00     0.121 A 
ATOM      5  N   UNL     1      13.631  19.587  37.562  1.00  0.00    -0.240 N 
ENDROOT
BRANCH   5   6
ATOM      6  C   UNL     1      12.978  20.236  38.652  1.00  0.00     0.065 A 
ATOM      7  C   UNL     1      11.534  21.398  40.770  1.00  0.00    -0.003 A 
ATOM      8  C   UNL     1      12.414  20.341  41.013  1.00  0.00     0.012 A 
ATOM      9  C   UNL     1      11.388  21.890  39.466  1.00  0.00     0.012 A 
ATOM     10  C   UNL     1      13.135  19.763  39.964  1.00  0.00     0.029 A 
ATOM     11  C   UNL     1      12.121  21.320  38.413  1.00  0.00     0.029 A 
BRANCH   7  12
ATOM     12  C   UNL     1      10.734  21.899  41.921  1.00  0.00     0.071 C 
ATOM     13  O   UNL     1      10.500  23.083  42.092  1.00  0.00    -0.545 OA
ATOM     14  O   UNL     1      10.263  20.930  42.733  1.00  0.00    -0.545 OA
ENDBRANCH   7  12
ENDBRANCH   5   6
BRANCH   2  15
ATOM     15  C   UNL     1      14.905  19.666  34.233  1.00  0.00     0.003 A 
ATOM     16  C   UNL     1      14.043  19.549  33.131  1.00  0.00     0.013 A 
ATOM     17  C   UNL     1      16.211  20.139  34.009  1.00  0.00     0.013 A 
ATOM     18  C   UNL     1      14.483  19.873  31.841  1.00  0.00     0.040 A 
ATOM     19  C   UNL     1      16.656  20.449  32.722  1.00  0.00     0.040 A 
ATOM     20  C   UNL     1      15.787  20.312  31.650  1.00  0.00     0.123 A 
ATOM     21  F   UNL     1      16.209  20.616  30.416  1.00  0.00    -0.207 F 
ENDBRANCH   2  15
BRANCH   3  22
ATOM     22  C   UNL     1      14.895  16.710  35.679  1.00  0.00     0.152 C 
BRANCH  22  23
ATOM     23  N   UNL     1      14.099  15.593  36.176  1.00  0.00    -0.381 N 
ATOM     24  H   UNL     1      14.432  15.046  36.923  1.00  0.00     0.160 HD
BRANCH  23  25
ATOM     25  C   UNL     1      12.866  15.300  35.594  1.00  0.00     0.037 A 
ATOM     26  C   UNL     1      11.711  15.022  36.335  1.00  0.00     0.068 A 
ATOM     27  C   UNL     1      12.736  15.436  34.202  1.00  0.00     0.029 A 
ATOM     28  C   UNL     1      10.489  14.820  35.695  1.00  0.00     0.160 A 
ATOM     29  C   UNL     1      11.512  15.227  33.559  1.00  0.00     0.044 A 
ATOM     30  C   UNL     1      10.392  14.913  34.315  1.00  0.00     0.158 A 
ATOM     31  F   UNL     1       9.402  14.544  36.431  1.00  0.00    -0.204 F 
ATOM     32  F   UNL     1       9.216  14.717  33.703  1.00  0.00    -0.204 F 
ENDBRANCH  23  25
ENDBRANCH  22  23
ENDBRANCH   3  22
TORSDOF 6
ENDMDL
MODEL 8
REMARK VINA RESULT:    -7.731      1.000      2.024
REMARK INTER + INTRA:         -12.318
REMARK INTER:                 -11.229
REMARK INTRA:                  -1.089
REMARK UNBOUND:                -1.875
REMARK SMILES O=C([O-])c1ccc(-n2cc(CNc3ccc(F)c(F)c3)c(-c3ccc(F)cc3)n2)cc1
REMARK SMILES IDX 29 1 21 2 10 3 9 4 8 5 7 6 4 7 31 8 5 9 30 10 6 11 2 12 1 13
REMARK SMILES IDX 3 14 22 15 28 16 23 17 27 18 24 19 25 20 26 21 11 22 12 23
REMARK SMILES IDX 13 25 20 26 14 27 18 28 15 29 16 30 19 31 17 32
REMARK H PARENT 12 24
ROOT
ATOM      1  N   UNL     1      13.661  19.692  38.649  1.00  0.00    -0.168 NA
ATOM      2  C   UNL     1      13.856  20.903  39.201  1.00  0.00     0.098 A 
ATOM      3  C   UNL     1      15.077  21.475  38.733  1.00  0.00     0.018 A 
ATOM      4  C   UNL     1      15.654  20.487  37.964  1.00  0.00     0.121 A 
ATOM      5  N   UNL     1      14.763  19.446  37.898  1.00  0.00    -0.240 N 
ENDROOT
BRANCH   5   6
ATOM      6  C   UNL     1      14.888  18.265  37.107  1.00  0.00     0.065 A 
ATOM      7  C   UNL     1      14.972  15.867  35.636  1.00  0.00    -0.003 A 
ATOM      8  C   UNL     1      14.339  16.997  35.110  1.00  0.00     0.012 A 
ATOM      9  C   UNL     1      15.581  15.941  36.896  1.00  0.00     0.012 A 
ATOM     10  C   UNL     1      14.299  18.190  35.836  1.00  0.00     0.029 A 
ATOM     11  C   UNL     1      15.553  17.142  37.621  1.00  0.00     0.029 A 
BRANCH   7  12
ATOM     12  C   UNL     1      14.894  14.610  34.844  1.00  0.00     0.071 C 
ATOM     13  O   UNL     1      15.782  13.775  34.848  1.00  0.00    -0.545 OA
ATOM     14  O   UNL     1      13.743  14.458  34.154  1.00  0.00    -0.545 OA
ENDBRANCH   7  12
ENDBRANCH   5   6
BRANCH   2  15
ATOM     15  C   UNL     1      12.870  21.486  40.128  1.00  0.00     0.003 A 
ATOM     16  C   UNL     1      11.717  22.121  39.640  1.00  0.00     0.013 A 
ATOM     17  C   UNL     1      13.052  21.415  41.521  1.00  0.00     0.013 A 
ATOM     18  C   UNL     1      10.787  22.688  40.521  1.00  0.00     0.040 A 
ATOM     19  C   UNL     1      12.133  21.992  42.399  1.00  0.00     0.040 A 
ATOM     20  C   UNL     1      11.009  22.624  41.890  1.00  0.00     0.123 A 
ATOM     21  F   UNL     1      10.122  23.171  42.732  1.00  0.00    -0.207 F 
ENDBRANCH   2  15
BRANCH   3  22
ATOM     22  C   UNL     1      15.646  22.832  38.983  1.00  0.00     0.152 C 
BRANCH  22  23
ATOM     23  N   UNL     1      15.091  23.868  38.117  1.00  0.00    -0.381 N 
ATOM     24  H   UNL     1      15.203  24.817  38.352  1.00  0.00     0.160 HD
BRANCH  23  25
ATOM     25  C   UNL     1      14.402  23.514  36.957  1.00  0.00     0.037 A 
ATOM     26  C   UNL     1      13.005  23.478  36.872  1.00  0.00     0.068 A 
ATOM     27  C   UNL     1      15.138  23.331  35.775  1.00  0.00     0.029 A 
ATOM     28  C   UNL     1      12.376  23.199  35.659  1.00  0.00     0.160 A 
ATOM     29  C   UNL     1      14.507  23.045  34.560  1.00  0.00     0.044 A 
ATOM     30  C   UNL     1      13.122  22.975  34.512  1.00  0.00     0.158 A 
ATOM     31  F   UNL     1      11.036  23.160  35.611  1.00  0.00    -0.204 F 
ATOM     32  F   UNL     1      12.513  22.706  33.350  1.00  0.00    -0.204 F 
ENDBRANCH  23  25
ENDBRANCH  22  23
ENDBRANCH   3  22
TORSDOF 6
ENDMDL
MODEL 9
REMARK VINA RESULT:    -7.670      4.838      8.392
REMARK INTER + INTRA:         -12.235
REMARK INTER:                 -10.874
REMARK INTRA:                  -1.361
REMARK UNBOUND:                -1.875
REMARK SMILES O=C([O-])c1ccc(-n2cc(CNc3ccc(F)c(F)c3)c(-c3ccc(F)cc3)n2)cc1
REMARK SMILES IDX 29 1 21 2 10 3 9 4 8 5 7 6 4 7 31 8 5 9 30 10 6 11 2 12 1 13
REMARK SMILES IDX 3 14 22 15 28 16 23 17 27 18 24 19 25 20 26 21 11 22 12 23
REMARK SMILES IDX 13 25 20 26 14 27 18 28 15 29 16 30 19 31 17 32
REMARK H PARENT 12 24
ROOT
ATOM      1  N   UNL     1      13.073  21.890  35.897  1.00  0.00    -0.168 NA
ATOM      2  C   UNL     1      13.841  21.388  34.912  1.00  0.00     0.098 A 
ATOM      3  C   UNL     1      14.629  20.302  35.398  1.00  0.00     0.018 A 
ATOM      4  C   UNL     1      14.373  20.262  36.751  1.00  0.00     0.121 A 
ATOM      5  N   UNL     1      13.406  21.198  37.014  1.00  0.00    -0.240 N 
ENDROOT
BRANCH   5   6
ATOM      6  C   UNL     1      12.746  21.417  38.261  1.00  0.00     0.065 A 
ATOM      7  C   UNL     1      11.283  21.769  40.639  1.00  0.00    -0.003 A 
ATOM      8  C   UNL     1      12.060  20.623  40.451  1.00  0.00     0.012 A 
ATOM      9  C   UNL     1      11.251  22.753  39.641  1.00  0.00     0.012 A 
ATOM     10  C   UNL     1      12.791  20.447  39.273  1.00  0.00     0.029 A 
ATOM     11  C   UNL     1      11.993  22.583  38.462  1.00  0.00     0.029 A 
BRANCH   7  12
ATOM     12  C   UNL     1      10.462  21.842  41.878  1.00  0.00     0.071 C 
ATOM     13  O   UNL     1      10.461  22.818  42.608  1.00  0.00    -0.545 OA
ATOM     14  O   UNL     1       9.695  20.754  42.102  1.00  0.00    -0.545 OA
ENDBRANCH   7  12
ENDBRANCH   5   6
BRANCH   2  15
ATOM     15  C   UNL     1      13.782  21.935  33.546  1.00  0.00     0.003 A 
ATOM     16  C   UNL     1      12.879  21.416  32.605  1.00  0.00     0.013 A 
ATOM     17  C   UNL     1      14.620  22.994  33.151  1.00  0.00     0.013 A 
ATOM     18  C   UNL     1      12.833  21.927  31.301  1.00  0.00     0.040 A 
ATOM     19  C   UNL     1      14.585  23.494  31.847  1.00  0.00     0.040 A 
ATOM     20  C   UNL     1      13.692  22.955  30.935  1.00  0.00     0.123 A 
ATOM     21  F   UNL     1      13.652  23.438  29.686  1.00  0.00    -0.207 F 
ENDBRANCH   2  15
BRANCH   3  22
ATOM     22  C   UNL     1      15.535  19.380  34.652  1.00  0.00     0.152 C 
BRANCH  22  23
ATOM     23  N   UNL     1      14.888  18.698  33.536  1.00  0.00    -0.381 N 
ATOM     24  H   UNL     1      15.079  18.978  32.611  1.00  0.00     0.160 HD
BRANCH  23  25
ATOM     25  C   UNL     1      14.000  17.650  33.776  1.00  0.00     0.037 A 
ATOM     26  C   UNL     1      12.771  17.516  33.120  1.00  0.00     0.068 A 
ATOM     27  C   UNL     1      14.421  16.598  34.606  1.00  0.00     0.029 A 
ATOM     28  C   UNL     1      11.966  16.400  33.343  1.00  0.00     0.160 A 
ATOM     29  C   UNL     1      13.611  15.481  34.835  1.00  0.00     0.044 A 
ATOM     30  C   UNL     1      12.379  15.393  34.203  1.00  0.00     0.158 A 
ATOM     31  F   UNL     1      10.789  16.305  32.708  1.00  0.00    -0.204 F 
ATOM     32  F   UNL     1      11.602  14.322  34.415  1.00  0.00    -0.204 F 
ENDBRANCH  23  25
ENDBRANCH  22  23
ENDBRANCH   3  22
TORSDOF 6
ENDMDL
MODEL 10
REMARK VINA RESULT:    -7.589      3.827      5.987
REMARK INTER + INTRA:         -12.126
REMARK INTER:                 -11.024
REMARK INTRA:                  -1.102
REMARK UNBOUND:                -1.875
REMARK SMILES O=C([O-])c1ccc(-n2cc(CNc3ccc(F)c(F)c3)c(-c3ccc(F)cc3)n2)cc1
REMARK SMILES IDX 29 1 21 2 10 3 9 4 8 5 7 6 4 7 31 8 5 9 30 10 6 11 2 12 1 13
REMARK SMILES IDX 3 14 22 15 28 16 23 17 27 18 24 19 25 20 26 21 11 22 12 23
REMARK SMILES IDX 13 25 20 26 14 27 18 28 15 29 16 30 19 31 17 32
REMARK H PARENT 12 24
ROOT
ATOM      1  N   UNL     1      14.720  16.218  36.166  1.00  0.00    -0.168 NA
ATOM      2  C   UNL     1      15.614  17.105  36.641  1.00  0.00     0.098 A 
ATOM      3  C   UNL     1      15.385  18.395  36.075  1.00  0.00     0.018 A 
ATOM      4  C   UNL     1      14.381  18.200  35.151  1.00  0.00     0.121 A 
ATOM      5  N   UNL     1      13.974  16.894  35.257  1.00  0.00    -0.240 N 
ENDROOT
BRANCH   5   6
ATOM      6  C   UNL     1      12.874  16.285  34.582  1.00  0.00     0.065 A 
ATOM      7  C   UNL     1      10.585  15.202  33.354  1.00  0.00    -0.003 A 
ATOM      8  C   UNL     1      11.268  16.267  32.760  1.00  0.00     0.012 A 
ATOM      9  C   UNL     1      11.059  14.664  34.559  1.00  0.00     0.012 A 
ATOM     10  C   UNL     1      12.407  16.805  33.365  1.00  0.00     0.029 A 
ATOM     11  C   UNL     1      12.209  15.195  35.162  1.00  0.00     0.029 A 
BRANCH   7  12
ATOM     12  C   UNL     1       9.330  14.745  32.699  1.00  0.00     0.071 C 
ATOM     13  O   UNL     1       8.276  14.635  33.301  1.00  0.00    -0.545 OA
ATOM     14  O   UNL     1       9.452  14.499  31.377  1.00  0.00    -0.545 OA
ENDBRANCH   7  12
ENDBRANCH   5   6
BRANCH   2  15
ATOM     15  C   UNL     1      16.631  16.707  37.628  1.00  0.00     0.003 A 
ATOM     16  C   UNL     1      17.991  16.967  37.399  1.00  0.00     0.013 A 
ATOM     17  C   UNL     1      16.269  16.068  38.827  1.00  0.00     0.013 A 
ATOM     18  C   UNL     1      18.961  16.576  38.331  1.00  0.00     0.040 A 
ATOM     19  C   UNL     1      17.235  15.665  39.751  1.00  0.00     0.040 A 
ATOM     20  C   UNL     1      18.573  15.922  39.493  1.00  0.00     0.123 A 
ATOM     21  F   UNL     1      19.500  15.543  40.382  1.00  0.00    -0.207 F 
ENDBRANCH   2  15
BRANCH   3  22
ATOM     22  C   UNL     1      16.047  19.697  36.383  1.00  0.00     0.152 C 
BRANCH  22  23
ATOM     23  N   UNL     1      15.163  20.850  36.250  1.00  0.00    -0.381 N 
ATOM     24  H   UNL     1      15.033  21.271  35.370  1.00  0.00     0.160 HD
BRANCH  23  25
ATOM     25  C   UNL     1      14.502  21.357  37.369  1.00  0.00     0.037 A 
ATOM     26  C   UNL     1      13.254  20.893  37.802  1.00  0.00     0.068 A 
ATOM     27  C   UNL     1      15.184  22.271  38.189  1.00  0.00     0.029 A 
ATOM     28  C   UNL     1      12.685  21.382  38.976  1.00  0.00     0.160 A 
ATOM     29  C   UNL     1      14.610  22.766  39.364  1.00  0.00     0.044 A 
ATOM     30  C   UNL     1      13.355  22.320  39.748  1.00  0.00     0.158 A 
ATOM     31  F   UNL     1      11.482  20.927  39.359  1.00  0.00    -0.204 F 
ATOM     32  F   UNL     1      12.803  22.787  40.876  1.00  0.00    -0.204 F 
ENDBRANCH  23  25
ENDBRANCH  22  23
ENDBRANCH   3  22
TORSDOF 6
ENDMDL
MODEL 11
REMARK VINA RESULT:    -7.362      4.242      6.234
REMARK INTER + INTRA:         -11.819
REMARK INTER:                 -10.171
REMARK INTRA:                  -1.649
REMARK UNBOUND:                -1.875
REMARK SMILES O=C([O-])c1ccc(-n2cc(CNc3ccc(F)c(F)c3)c(-c3ccc(F)cc3)n2)cc1
REMARK SMILES IDX 29 1 21 2 10 3 9 4 8 5 7 6 4 7 31 8 5 9 30 10 6 11 2 12 1 13
REMARK SMILES IDX 3 14 22 15 28 16 23 17 27 18 24 19 25 20 26 21 11 22 12 23
REMARK SMILES IDX 13 25 20 26 14 27 18 28 15 29 16 30 19 31 17 32
REMARK H PARENT 12 24
ROOT
ATOM      1  N   UNL     1      13.279  16.237  35.528  1.00  0.00    -0.168 NA
ATOM      2  C   UNL     1      14.344  17.024  35.767  1.00  0.00     0.098 A 
ATOM      3  C   UNL     1      14.516  17.965  34.708  1.00  0.00     0.018 A 
ATOM      4  C   UNL     1      13.566  17.617  33.772  1.00  0.00     0.121 A 
ATOM      5  N   UNL     1      12.813  16.604  34.310  1.00  0.00    -0.240 N 
ENDROOT
BRANCH   5   6
ATOM      6  C   UNL     1      11.640  16.020  33.744  1.00  0.00     0.065 A 
ATOM      7  C   UNL     1       9.223  15.017  32.707  1.00  0.00    -0.003 A 
ATOM      8  C   UNL     1      10.023  15.866  31.938  1.00  0.00     0.012 A 
ATOM      9  C   UNL     1       9.643  14.652  33.994  1.00  0.00     0.012 A 
ATOM     10  C   UNL     1      11.225  16.364  32.448  1.00  0.00     0.029 A 
ATOM     11  C   UNL     1      10.855  15.141  34.504  1.00  0.00     0.029 A 
BRANCH   7  12
ATOM     12  C   UNL     1       7.915  14.602  32.132  1.00  0.00     0.071 C 
ATOM     13  O   UNL     1       6.916  14.452  32.813  1.00  0.00    -0.545 OA
ATOM     14  O   UNL     1       7.924  14.444  30.791  1.00  0.00    -0.545 OA
ENDBRANCH   7  12
ENDBRANCH   5   6
BRANCH   2  15
ATOM     15  C   UNL     1      15.142  16.876  36.996  1.00  0.00     0.003 A 
ATOM     16  C   UNL     1      16.167  15.920  37.073  1.00  0.00     0.013 A 
ATOM     17  C   UNL     1      14.904  17.689  38.119  1.00  0.00     0.013 A 
ATOM     18  C   UNL     1      16.916  15.769  38.247  1.00  0.00     0.040 A 
ATOM     19  C   UNL     1      15.641  17.530  39.295  1.00  0.00     0.040 A 
ATOM     20  C   UNL     1      16.640  16.570  39.347  1.00  0.00     0.123 A 
ATOM     21  F   UNL     1      17.352  16.421  40.472  1.00  0.00    -0.207 F 
ENDBRANCH   2  15
BRANCH   3  22
ATOM     22  C   UNL     1      15.484  19.096  34.592  1.00  0.00     0.152 C 
BRANCH  22  23
ATOM     23  N   UNL     1      14.871  20.411  34.752  1.00  0.00    -0.381 N 
ATOM     24  H   UNL     1      14.563  20.909  33.960  1.00  0.00     0.160 HD
BRANCH  23  25
ATOM     25  C   UNL     1      14.720  20.962  36.024  1.00  0.00     0.037 A 
ATOM     26  C   UNL     1      13.504  21.459  36.509  1.00  0.00     0.068 A 
ATOM     27  C   UNL     1      15.800  20.880  36.918  1.00  0.00     0.029 A 
ATOM     28  C   UNL     1      13.400  21.920  37.820  1.00  0.00     0.160 A 
ATOM     29  C   UNL     1      15.696  21.348  38.232  1.00  0.00     0.044 A 
ATOM     30  C   UNL     1      14.491  21.873  38.674  1.00  0.00     0.158 A 
ATOM     31  F   UNL     1      12.225  22.401  38.253  1.00  0.00    -0.204 F 
ATOM     32  F   UNL     1      14.386  22.317  39.933  1.00  0.00    -0.204 F 
ENDBRANCH  23  25
ENDBRANCH  22  23
ENDBRANCH   3  22
TORSDOF 6
ENDMDL
MODEL 12
REMARK VINA RESULT:    -7.272      4.101      6.547
REMARK INTER + INTRA:         -11.698
REMARK INTER:                 -10.881
REMARK INTRA:                  -0.817
REMARK UNBOUND:                -1.875
REMARK SMILES O=C([O-])c1ccc(-n2cc(CNc3ccc(F)c(F)c3)c(-c3ccc(F)cc3)n2)cc1
REMARK SMILES IDX 29 1 21 2 10 3 9 4 8 5 7 6 4 7 31 8 5 9 30 10 6 11 2 12 1 13
REMARK SMILES IDX 3 14 22 15 28 16 23 17 27 18 24 19 25 20 26 21 11 22 12 23
REMARK SMILES IDX 13 25 20 26 14 27 18 28 15 29 16 30 19 31 17 32
REMARK H PARENT 12 24
ROOT
ATOM      1  N   UNL     1      13.211  21.787  36.987  1.00  0.00    -0.168 NA
ATOM      2  C   UNL     1      13.414  21.222  38.192  1.00  0.00     0.098 A 
ATOM      3  C   UNL     1      14.411  20.204  38.104  1.00  0.00     0.018 A 
ATOM      4  C   UNL     1      14.704  20.117  36.760  1.00  0.00     0.121 A 
ATOM      5  N   UNL     1      14.000  21.106  36.121  1.00  0.00    -0.240 N 
ENDROOT
BRANCH   5   6
ATOM      6  C   UNL     1      14.095  21.466  34.743  1.00  0.00     0.065 A 
ATOM      7  C   UNL     1      14.152  22.031  31.987  1.00  0.00    -0.003 A 
ATOM      8  C   UNL     1      13.278  22.720  32.831  1.00  0.00     0.012 A 
ATOM      9  C   UNL     1      15.016  21.067  32.525  1.00  0.00     0.012 A 
ATOM     10  C   UNL     1      13.249  22.444  34.200  1.00  0.00     0.029 A 
ATOM     11  C   UNL     1      14.997  20.797  33.902  1.00  0.00     0.029 A 
BRANCH   7  12
ATOM     12  C   UNL     1      14.060  22.314  30.529  1.00  0.00     0.071 C 
ATOM     13  O   UNL     1      13.066  22.798  30.015  1.00  0.00    -0.545 OA
ATOM     14  O   UNL     1      15.182  22.026  29.835  1.00  0.00    -0.545 OA
ENDBRANCH   7  12
ENDBRANCH   5   6
BRANCH   2  15
ATOM     15  C   UNL     1      12.679  21.682  39.382  1.00  0.00     0.003 A 
ATOM     16  C   UNL     1      13.149  21.388  40.672  1.00  0.00     0.013 A 
ATOM     17  C   UNL     1      11.495  22.431  39.261  1.00  0.00     0.013 A 
ATOM     18  C   UNL     1      12.443  21.812  41.804  1.00  0.00     0.040 A 
ATOM     19  C   UNL     1      10.782  22.844  40.389  1.00  0.00     0.040 A 
ATOM     20  C   UNL     1      11.263  22.528  41.650  1.00  0.00     0.123 A 
ATOM     21  F   UNL     1      10.585  22.929  42.733  1.00  0.00    -0.207 F 
ENDBRANCH   2  15
BRANCH   3  22
ATOM     22  C   UNL     1      15.035  19.393  39.190  1.00  0.00     0.152 C 
BRANCH  22  23
ATOM     23  N   UNL     1      14.450  18.065  39.340  1.00  0.00    -0.381 N 
ATOM     24  H   UNL     1      13.827  17.884  40.081  1.00  0.00     0.160 HD
BRANCH  23  25
ATOM     25  C   UNL     1      14.771  17.053  38.436  1.00  0.00     0.037 A 
ATOM     26  C   UNL     1      13.839  16.471  37.568  1.00  0.00     0.068 A 
ATOM     27  C   UNL     1      16.122  16.702  38.280  1.00  0.00     0.029 A 
ATOM     28  C   UNL     1      14.241  15.523  36.629  1.00  0.00     0.160 A 
ATOM     29  C   UNL     1      16.524  15.747  37.342  1.00  0.00     0.044 A 
ATOM     30  C   UNL     1      15.574  15.156  36.522  1.00  0.00     0.158 A 
ATOM     31  F   UNL     1      13.323  14.975  35.818  1.00  0.00    -0.204 F 
ATOM     32  F   UNL     1      15.955  14.244  35.618  1.00  0.00    -0.204 F 
ENDBRANCH  23  25
ENDBRANCH  22  23
ENDBRANCH   3  22
TORSDOF 6
ENDMDL
MODEL 13
REMARK VINA RESULT:    -7.259      5.687      8.189
REMARK INTER + INTRA:         -11.681
REMARK INTER:                  -9.396
REMARK INTRA:                  -2.285
REMARK UNBOUND:                -1.875
REMARK SMILES O=C([O-])c1ccc(-n2cc(CNc3ccc(F)c(F)c3)c(-c3ccc(F)cc3)n2)cc1
REMARK SMILES IDX 29 1 21 2 10 3 9 4 8 5 7 6 4 7 31 8 5 9 30 10 6 11 2 12 1 13
REMARK SMILES IDX 3 14 22 15 28 16 23 17 27 18 24 19 25 20 26 21 11 22 12 23
REMARK SMILES IDX 13 25 20 26 14 27 18 28 15 29 16 30 19 31 17 32
REMARK H PARENT 12 24
ROOT
ATOM      1  N   UNL     1      12.881  22.326  35.794  1.00  0.00    -0.168 NA
ATOM      2  C   UNL     1      13.105  23.087  34.707  1.00  0.00     0.098 A 
ATOM      3  C   UNL     1      12.720  24.439  34.958  1.00  0.00     0.018 A 
ATOM      4  C   UNL     1      12.148  24.413  36.211  1.00  0.00     0.121 A 
ATOM      5  N   UNL     1      12.296  23.142  36.704  1.00  0.00    -0.240 N 
ENDROOT
BRANCH   5   6
ATOM      6  C   UNL     1      11.964  22.692  38.017  1.00  0.00     0.065 A 
ATOM      7  C   UNL     1      11.136  21.739  40.533  1.00  0.00    -0.003 A 
ATOM      8  C   UNL     1      11.917  20.937  39.696  1.00  0.00     0.012 A 
ATOM      9  C   UNL     1      10.782  23.030  40.118  1.00  0.00     0.012 A 
ATOM     10  C   UNL     1      12.332  21.409  38.448  1.00  0.00     0.029 A 
ATOM     11  C   UNL     1      11.209  23.510  38.870  1.00  0.00     0.029 A 
BRANCH   7  12
ATOM     12  C   UNL     1      10.657  21.135  41.805  1.00  0.00     0.071 C 
ATOM     13  O   UNL     1       9.488  20.845  41.995  1.00  0.00    -0.545 OA
ATOM     14  O   UNL     1      11.630  20.902  42.711  1.00  0.00    -0.545 OA
ENDBRANCH   7  12
ENDBRANCH   5   6
BRANCH   2  15
ATOM     15  C   UNL     1      13.696  22.517  33.485  1.00  0.00     0.003 A 
ATOM     16  C   UNL     1      15.055  22.165  33.444  1.00  0.00     0.013 A 
ATOM     17  C   UNL     1      12.918  22.302  32.333  1.00  0.00     0.013 A 
ATOM     18  C   UNL     1      15.621  21.636  32.277  1.00  0.00     0.040 A 
ATOM     19  C   UNL     1      13.485  21.788  31.165  1.00  0.00     0.040 A 
ATOM     20  C   UNL     1      14.832  21.461  31.148  1.00  0.00     0.123 A 
ATOM     21  F   UNL     1      15.375  20.961  30.031  1.00  0.00    -0.207 F 
ENDBRANCH   2  15
BRANCH   3  22
ATOM     22  C   UNL     1      12.884  25.647  34.096  1.00  0.00     0.152 C 
BRANCH  22  23
ATOM     23  N   UNL     1      14.272  26.072  33.941  1.00  0.00    -0.381 N 
ATOM     24  H   UNL     1      14.713  26.580  34.660  1.00  0.00     0.160 HD
BRANCH  23  25
ATOM     25  C   UNL     1      14.973  25.759  32.778  1.00  0.00     0.037 A 
ATOM     26  C   UNL     1      16.338  25.447  32.761  1.00  0.00     0.068 A 
ATOM     27  C   UNL     1      14.249  25.601  31.584  1.00  0.00     0.029 A 
ATOM     28  C   UNL     1      16.962  25.060  31.576  1.00  0.00     0.160 A 
ATOM     29  C   UNL     1      14.877  25.218  30.395  1.00  0.00     0.044 A 
ATOM     30  C   UNL     1      16.238  24.955  30.399  1.00  0.00     0.158 A 
ATOM     31  F   UNL     1      18.274  24.778  31.590  1.00  0.00    -0.204 F 
ATOM     32  F   UNL     1      16.843  24.583  29.262  1.00  0.00    -0.204 F 
ENDBRANCH  23  25
ENDBRANCH  22  23
ENDBRANCH   3  22
TORSDOF 6
ENDMDL
MODEL 14
REMARK VINA RESULT:    -7.201      3.024      5.401
REMARK INTER + INTRA:         -11.602
REMARK INTER:                 -10.380
REMARK INTRA:                  -1.223
REMARK UNBOUND:                -1.875
REMARK SMILES O=C([O-])c1ccc(-n2cc(CNc3ccc(F)c(F)c3)c(-c3ccc(F)cc3)n2)cc1
REMARK SMILES IDX 29 1 21 2 10 3 9 4 8 5 7 6 4 7 31 8 5 9 30 10 6 11 2 12 1 13
REMARK SMILES IDX 3 14 22 15 28 16 23 17 27 18 24 19 25 20 26 21 11 22 12 23
REMARK SMILES IDX 13 25 20 26 14 27 18 28 15 29 16 30 19 31 17 32
REMARK H PARENT 12 24
ROOT
ATOM      1  N   UNL     1      15.649  20.547  35.932  1.00  0.00    -0.168 NA
ATOM      2  C   UNL     1      15.182  21.767  35.608  1.00  0.00     0.098 A 
ATOM      3  C   UNL     1      15.302  22.659  36.715  1.00  0.00     0.018 A 
ATOM      4  C   UNL     1      15.759  21.871  37.751  1.00  0.00     0.121 A 
ATOM      5  N   UNL     1      15.996  20.620  37.240  1.00  0.00    -0.240 N 
ENDROOT
BRANCH   5   6
ATOM      6  C   UNL     1      16.594  19.519  37.925  1.00  0.00     0.065 A 
ATOM      7  C   UNL     1      17.665  17.228  39.159  1.00  0.00    -0.003 A 
ATOM      8  C   UNL     1      18.330  17.828  38.086  1.00  0.00     0.012 A 
ATOM      9  C   UNL     1      16.468  17.786  39.629  1.00  0.00     0.012 A 
ATOM     10  C   UNL     1      17.802  18.968  37.473  1.00  0.00     0.029 A 
ATOM     11  C   UNL     1      15.943  18.938  39.023  1.00  0.00     0.029 A 
BRANCH   7  12
ATOM     12  C   UNL     1      18.240  15.966  39.699  1.00  0.00     0.071 C 
ATOM     13  O   UNL     1      17.623  15.234  40.453  1.00  0.00    -0.545 OA
ATOM     14  O   UNL     1      19.483  15.686  39.253  1.00  0.00    -0.545 OA
ENDBRANCH   7  12
ENDBRANCH   5   6
BRANCH   2  15
ATOM     15  C   UNL     1      14.664  22.051  34.258  1.00  0.00     0.003 A 
ATOM     16  C   UNL     1      15.541  22.210  33.174  1.00  0.00     0.013 A 
ATOM     17  C   UNL     1      13.283  22.161  34.019  1.00  0.00     0.013 A 
ATOM     18  C   UNL     1      15.050  22.494  31.893  1.00  0.00     0.040 A 
ATOM     19  C   UNL     1      12.792  22.458  32.745  1.00  0.00     0.040 A 
ATOM     20  C   UNL     1      13.682  22.622  31.695  1.00  0.00     0.123 A 
ATOM     21  F   UNL     1      13.213  22.900  30.471  1.00  0.00    -0.207 F 
ENDBRANCH   2  15
BRANCH   3  22
ATOM     22  C   UNL     1      15.021  24.123  36.789  1.00  0.00     0.152 C 
BRANCH  22  23
ATOM     23  N   UNL     1      14.383  24.534  38.036  1.00  0.00    -0.381 N 
ATOM     24  H   UNL     1      14.915  24.973  38.739  1.00  0.00     0.160 HD
BRANCH  23  25
ATOM     25  C   UNL     1      13.021  24.308  38.232  1.00  0.00     0.037 A 
ATOM     26  C   UNL     1      12.519  23.347  39.118  1.00  0.00     0.068 A 
ATOM     27  C   UNL     1      12.106  25.186  37.627  1.00  0.00     0.029 A 
ATOM     28  C   UNL     1      11.147  23.228  39.332  1.00  0.00     0.160 A 
ATOM     29  C   UNL     1      10.729  25.062  37.837  1.00  0.00     0.044 A 
ATOM     30  C   UNL     1      10.256  24.075  38.688  1.00  0.00     0.158 A 
ATOM     31  F   UNL     1      10.695  22.290  40.177  1.00  0.00    -0.204 F 
ATOM     32  F   UNL     1       8.938  23.956  38.896  1.00  0.00    -0.204 F 
ENDBRANCH  23  25
ENDBRANCH  22  23
ENDBRANCH   3  22
TORSDOF 6
ENDMDL
MODEL 15
REMARK VINA RESULT:    -7.131      4.163      5.990
REMARK INTER + INTRA:         -11.507
REMARK INTER:                  -9.884
REMARK INTRA:                  -1.623
REMARK UNBOUND:                -1.875
REMARK SMILES O=C([O-])c1ccc(-n2cc(CNc3ccc(F)c(F)c3)c(-c3ccc(F)cc3)n2)cc1
REMARK SMILES IDX 29 1 21 2 10 3 9 4 8 5 7 6 4 7 31 8 5 9 30 10 6 11 2 12 1 13
REMARK SMILES IDX 3 14 22 15 28 16 23 17 27 18 24 19 25 20 26 21 11 22 12 23
REMARK SMILES IDX 13 25 20 26 14 27 18 28 15 29 16 30 19 31 17 32
REMARK H PARENT 12 24
ROOT
ATOM      1  N   UNL     1      15.066  23.529  34.962  1.00  0.00    -0.168 NA
ATOM      2  C   UNL     1      14.767  23.568  36.274  1.00  0.00     0.098 A 
ATOM      3  C   UNL     1      15.702  22.791  37.022  1.00  0.00     0.018 A 
ATOM      4  C   UNL     1      16.501  22.194  36.071  1.00  0.00     0.121 A 
ATOM      5  N   UNL     1      16.123  22.688  34.848  1.00  0.00    -0.240 N 
ENDROOT
BRANCH   5   6
ATOM      6  C   UNL     1      16.760  22.442  33.595  1.00  0.00     0.065 A 
ATOM      7  C   UNL     1      17.976  21.766  31.148  1.00  0.00    -0.003 A 
ATOM      8  C   UNL     1      16.637  22.165  31.185  1.00  0.00     0.012 A 
ATOM      9  C   UNL     1      18.716  21.723  32.337  1.00  0.00     0.012 A 
ATOM     10  C   UNL     1      16.031  22.504  32.398  1.00  0.00     0.029 A 
ATOM     11  C   UNL     1      18.114  22.075  33.555  1.00  0.00     0.029 A 
BRANCH   7  12
ATOM     12  C   UNL     1      18.523  21.333  29.834  1.00  0.00     0.071 C 
ATOM     13  O   UNL     1      19.487  20.593  29.736  1.00  0.00    -0.545 OA
ATOM     14  O   UNL     1      17.839  21.797  28.767  1.00  0.00    -0.545 OA
ENDBRANCH   7  12
ENDBRANCH   5   6
BRANCH   2  15
ATOM     15  C   UNL     1      13.629  24.358  36.773  1.00  0.00     0.003 A 
ATOM     16  C   UNL     1      13.841  25.519  37.531  1.00  0.00     0.013 A 
ATOM     17  C   UNL     1      12.304  23.976  36.497  1.00  0.00     0.013 A 
ATOM     18  C   UNL     1      12.758  26.263  38.018  1.00  0.00     0.040 A 
ATOM     19  C   UNL     1      11.223  24.708  36.993  1.00  0.00     0.040 A 
ATOM     20  C   UNL     1      11.461  25.844  37.750  1.00  0.00     0.123 A 
ATOM     21  F   UNL     1      10.426  26.552  38.222  1.00  0.00    -0.207 F 
ENDBRANCH   2  15
BRANCH   3  22
ATOM     22  C   UNL     1      15.834  22.631  38.500  1.00  0.00     0.152 C 
BRANCH  22  23
ATOM     23  N   UNL     1      15.257  21.391  39.009  1.00  0.00    -0.381 N 
ATOM     24  H   UNL     1      15.711  20.533  38.843  1.00  0.00     0.160 HD
BRANCH  23  25
ATOM     25  C   UNL     1      14.065  21.419  39.732  1.00  0.00     0.037 A 
ATOM     26  C   UNL     1      13.108  22.432  39.600  1.00  0.00     0.068 A 
ATOM     27  C   UNL     1      13.735  20.302  40.518  1.00  0.00     0.029 A 
ATOM     28  C   UNL     1      11.898  22.358  40.288  1.00  0.00     0.160 A 
ATOM     29  C   UNL     1      12.524  20.231  41.213  1.00  0.00     0.044 A 
ATOM     30  C   UNL     1      11.611  21.269  41.097  1.00  0.00     0.158 A 
ATOM     31  F   UNL     1      11.006  23.351  40.151  1.00  0.00    -0.204 F 
ATOM     32  F   UNL     1      10.447  21.203  41.756  1.00  0.00    -0.204 F 
ENDBRANCH  23  25
ENDBRANCH  22  23
ENDBRANCH   3  22
TORSDOF 6
ENDMDL
MODEL 16
REMARK VINA RESULT:    -7.066      4.279      6.574
REMARK INTER + INTRA:         -11.420
REMARK INTER:                 -10.556
REMARK INTRA:                  -0.864
REMARK UNBOUND:                -1.875
REMARK SMILES O=C([O-])c1ccc(-n2cc(CNc3ccc(F)c(F)c3)c(-c3ccc(F)cc3)n2)cc1
REMARK SMILES IDX 29 1 21 2 10 3 9 4 8 5 7 6 4 7 31 8 5 9 30 10 6 11 2 12 1 13
REMARK SMILES IDX 3 14 22 15 28 16 23 17 27 18 24 19 25 20 26 21 11 22 12 23
REMARK SMILES IDX 13 25 20 26 14 27 18 28 15 29 16 30 19 31 17 32
REMARK H PARENT 12 24
ROOT
ATOM      1  N   UNL     1      16.176  19.017  35.938  1.00  0.00    -0.168 NA
ATOM      2  C   UNL     1      15.985  18.730  37.239  1.00  0.00     0.098 A 
ATOM      3  C   UNL     1      14.811  19.379  37.725  1.00  0.00     0.018 A 
ATOM      4  C   UNL     1      14.381  20.160  36.674  1.00  0.00     0.121 A 
ATOM      5  N   UNL     1      15.195  19.890  35.603  1.00  0.00    -0.240 N 
ENDROOT
BRANCH   5   6
ATOM      6  C   UNL     1      15.041  20.377  34.270  1.00  0.00     0.065 A 
ATOM      7  C   UNL     1      14.610  21.472  31.713  1.00  0.00    -0.003 A 
ATOM      8  C   UNL     1      15.683  21.907  32.496  1.00  0.00     0.012 A 
ATOM      9  C   UNL     1      13.759  20.471  32.203  1.00  0.00     0.012 A 
ATOM     10  C   UNL     1      15.901  21.363  33.765  1.00  0.00     0.029 A 
ATOM     11  C   UNL     1      13.984  19.915  33.471  1.00  0.00     0.029 A 
BRANCH   7  12
ATOM     12  C   UNL     1      14.389  22.162  30.414  1.00  0.00     0.071 C 
ATOM     13  O   UNL     1      15.266  22.281  29.576  1.00  0.00    -0.545 OA
ATOM     14  O   UNL     1      13.129  22.609  30.230  1.00  0.00    -0.545 OA
ENDBRANCH   7  12
ENDBRANCH   5   6
BRANCH   2  15
ATOM     15  C   UNL     1      16.902  17.835  37.965  1.00  0.00     0.003 A 
ATOM     16  C   UNL     1      18.291  18.023  37.894  1.00  0.00     0.013 A 
ATOM     17  C   UNL     1      16.413  16.778  38.752  1.00  0.00     0.013 A 
ATOM     18  C   UNL     1      19.164  17.163  38.573  1.00  0.00     0.040 A 
ATOM     19  C   UNL     1      17.282  15.911  39.418  1.00  0.00     0.040 A 
ATOM     20  C   UNL     1      18.650  16.113  39.321  1.00  0.00     0.123 A 
ATOM     21  F   UNL     1      19.486  15.287  39.965  1.00  0.00    -0.207 F 
ENDBRANCH   2  15
BRANCH   3  22
ATOM     22  C   UNL     1      14.149  19.268  39.059  1.00  0.00     0.152 C 
BRANCH  22  23
ATOM     23  N   UNL     1      14.492  20.350  39.975  1.00  0.00    -0.381 N 
ATOM     24  H   UNL     1      15.437  20.550  40.169  1.00  0.00     0.160 HD
BRANCH  23  25
ATOM     25  C   UNL     1      13.484  21.103  40.577  1.00  0.00     0.037 A 
ATOM     26  C   UNL     1      12.535  21.837  39.855  1.00  0.00     0.068 A 
ATOM     27  C   UNL     1      13.318  21.003  41.968  1.00  0.00     0.029 A 
ATOM     28  C   UNL     1      11.501  22.500  40.513  1.00  0.00     0.160 A 
ATOM     29  C   UNL     1      12.284  21.674  42.629  1.00  0.00     0.044 A 
ATOM     30  C   UNL     1      11.381  22.427  41.893  1.00  0.00     0.158 A 
ATOM     31  F   UNL     1      10.613  23.204  39.795  1.00  0.00    -0.204 F 
ATOM     32  F   UNL     1      10.386  23.067  42.522  1.00  0.00    -0.204 F 
ENDBRANCH  23  25
ENDBRANCH  22  23
ENDBRANCH   3  22
TORSDOF 6
ENDMDL
MODEL 17
REMARK VINA RESULT:    -7.043      5.478      8.127
REMARK INTER + INTRA:         -11.389
REMARK INTER:                  -9.071
REMARK INTRA:                  -2.318
REMARK UNBOUND:                -1.875
REMARK SMILES O=C([O-])c1ccc(-n2cc(CNc3ccc(F)c(F)c3)c(-c3ccc(F)cc3)n2)cc1
REMARK SMILES IDX 29 1 21 2 10 3 9 4 8 5 7 6 4 7 31 8 5 9 30 10 6 11 2 12 1 13
REMARK SMILES IDX 3 14 22 15 28 16 23 17 27 18 24 19 25 20 26 21 11 22 12 23
REMARK SMILES IDX 13 25 20 26 14 27 18 28 15 29 16 30 19 31 17 32
REMARK H PARENT 12 24
ROOT
ATOM      1  N   UNL     1      13.012  22.089  35.850  1.00  0.00    -0.168 NA
ATOM      2  C   UNL     1      13.765  21.613  34.841  1.00  0.00     0.098 A 
ATOM      3  C   UNL     1      14.553  20.508  35.285  1.00  0.00     0.018 A 
ATOM      4  C   UNL     1      14.313  20.429  36.640  1.00  0.00     0.121 A 
ATOM      5  N   UNL     1      13.354  21.363  36.942  1.00  0.00    -0.240 N 
ENDROOT
BRANCH   5   6
ATOM      6  C   UNL     1      12.711  21.548  38.203  1.00  0.00     0.065 A 
ATOM      7  C   UNL     1      11.278  21.838  40.608  1.00  0.00    -0.003 A 
ATOM      8  C   UNL     1      12.038  20.689  40.373  1.00  0.00     0.012 A 
ATOM      9  C   UNL     1      11.249  22.855  39.644  1.00  0.00     0.012 A 
ATOM     10  C   UNL     1      12.754  20.543  39.181  1.00  0.00     0.029 A 
ATOM     11  C   UNL     1      11.976  22.716  38.452  1.00  0.00     0.029 A 
BRANCH   7  12
ATOM     12  C   UNL     1      10.472  21.880  41.858  1.00  0.00     0.071 C 
ATOM     13  O   UNL     1      10.477  22.838  42.610  1.00  0.00    -0.545 OA
ATOM     14  O   UNL     1       9.711  20.784  42.065  1.00  0.00    -0.545 OA
ENDBRANCH   7  12
ENDBRANCH   5   6
BRANCH   2  15
ATOM     15  C   UNL     1      13.693  22.201  33.493  1.00  0.00     0.003 A 
ATOM     16  C   UNL     1      13.134  21.480  32.426  1.00  0.00     0.013 A 
ATOM     17  C   UNL     1      14.173  23.499  33.240  1.00  0.00     0.013 A 
ATOM     18  C   UNL     1      13.079  22.033  31.140  1.00  0.00     0.040 A 
ATOM     19  C   UNL     1      14.131  24.047  31.956  1.00  0.00     0.040 A 
ATOM     20  C   UNL     1      13.585  23.307  30.918  1.00  0.00     0.123 A 
ATOM     21  F   UNL     1      13.537  23.834  29.687  1.00  0.00    -0.207 F 
ENDBRANCH   2  15
BRANCH   3  22
ATOM     22  C   UNL     1      15.445  19.604  34.501  1.00  0.00     0.152 C 
BRANCH  22  23
ATOM     23  N   UNL     1      16.758  20.176  34.220  1.00  0.00    -0.381 N 
ATOM     24  H   UNL     1      17.497  20.048  34.859  1.00  0.00     0.160 HD
BRANCH  23  25
ATOM     25  C   UNL     1      16.969  20.902  33.049  1.00  0.00     0.037 A 
ATOM     26  C   UNL     1      16.480  20.506  31.798  1.00  0.00     0.068 A 
ATOM     27  C   UNL     1      17.570  22.168  33.148  1.00  0.00     0.029 A 
ATOM     28  C   UNL     1      16.652  21.320  30.679  1.00  0.00     0.160 A 
ATOM     29  C   UNL     1      17.748  22.981  32.024  1.00  0.00     0.044 A 
ATOM     30  C   UNL     1      17.290  22.546  30.790  1.00  0.00     0.158 A 
ATOM     31  F   UNL     1      16.183  20.907  29.492  1.00  0.00    -0.204 F 
ATOM     32  F   UNL     1      17.454  23.324  29.712  1.00  0.00    -0.204 F 
ENDBRANCH  23  25
ENDBRANCH  22  23
ENDBRANCH   3  22
TORSDOF 6
ENDMDL
MODEL 18
REMARK VINA RESULT:    -7.032      5.174      8.992
REMARK INTER + INTRA:         -11.373
REMARK INTER:                 -10.166
REMARK INTRA:                  -1.207
REMARK UNBOUND:                -1.875
REMARK SMILES O=C([O-])c1ccc(-n2cc(CNc3ccc(F)c(F)c3)c(-c3ccc(F)cc3)n2)cc1
REMARK SMILES IDX 29 1 21 2 10 3 9 4 8 5 7 6 4 7 31 8 5 9 30 10 6 11 2 12 1 13
REMARK SMILES IDX 3 14 22 15 28 16 23 17 27 18 24 19 25 20 26 21 11 22 12 23
REMARK SMILES IDX 13 25 20 26 14 27 18 28 15 29 16 30 19 31 17 32
REMARK H PARENT 12 24
ROOT
ATOM      1  N   UNL     1      14.875  21.257  35.487  1.00  0.00    -0.168 NA
ATOM      2  C   UNL     1      15.606  20.140  35.317  1.00  0.00     0.098 A 
ATOM      3  C   UNL     1      15.292  19.180  36.326  1.00  0.00     0.018 A 
ATOM      4  C   UNL     1      14.420  19.833  37.171  1.00  0.00     0.121 A 
ATOM      5  N   UNL     1      14.157  21.061  36.620  1.00  0.00    -0.240 N 
ENDROOT
BRANCH   5   6
ATOM      6  C   UNL     1      13.212  22.022  37.089  1.00  0.00     0.065 A 
ATOM      7  C   UNL     1      11.204  23.796  37.952  1.00  0.00    -0.003 A 
ATOM      8  C   UNL     1      11.746  22.858  38.836  1.00  0.00     0.012 A 
ATOM      9  C   UNL     1      11.681  23.859  36.636  1.00  0.00     0.012 A 
ATOM     10  C   UNL     1      12.745  21.978  38.411  1.00  0.00     0.029 A 
ATOM     11  C   UNL     1      12.693  22.985  36.211  1.00  0.00     0.029 A 
BRANCH   7  12
ATOM     12  C   UNL     1      10.081  24.635  38.451  1.00  0.00     0.071 C 
ATOM     13  O   UNL     1       9.299  24.247  39.301  1.00  0.00    -0.545 OA
ATOM     14  O   UNL     1      10.028  25.870  37.909  1.00  0.00    -0.545 OA
ENDBRANCH   7  12
ENDBRANCH   5   6
BRANCH   2  15
ATOM     15  C   UNL     1      16.552  20.011  34.196  1.00  0.00     0.003 A 
ATOM     16  C   UNL     1      17.906  20.342  34.360  1.00  0.00     0.013 A 
ATOM     17  C   UNL     1      16.129  19.546  32.938  1.00  0.00     0.013 A 
ATOM     18  C   UNL     1      18.804  20.234  33.290  1.00  0.00     0.040 A 
ATOM     19  C   UNL     1      17.019  19.450  31.866  1.00  0.00     0.040 A 
ATOM     20  C   UNL     1      18.349  19.796  32.053  1.00  0.00     0.123 A 
ATOM     21  F   UNL     1      19.206  19.698  31.029  1.00  0.00    -0.207 F 
ENDBRANCH   2  15
BRANCH   3  22
ATOM     22  C   UNL     1      15.764  17.772  36.475  1.00  0.00     0.152 C 
BRANCH  22  23
ATOM     23  N   UNL     1      14.790  16.891  37.111  1.00  0.00    -0.381 N 
ATOM     24  H   UNL     1      14.770  16.807  38.091  1.00  0.00     0.160 HD
BRANCH  23  25
ATOM     25  C   UNL     1      13.886  16.170  36.331  1.00  0.00     0.037 A 
ATOM     26  C   UNL     1      12.665  15.687  36.815  1.00  0.00     0.068 A 
ATOM     27  C   UNL     1      14.142  16.049  34.955  1.00  0.00     0.029 A 
ATOM     28  C   UNL     1      11.768  15.046  35.962  1.00  0.00     0.160 A 
ATOM     29  C   UNL     1      13.245  15.400  34.101  1.00  0.00     0.044 A 
ATOM     30  C   UNL     1      12.060  14.895  34.615  1.00  0.00     0.158 A 
ATOM     31  F   UNL     1      10.610  14.584  36.457  1.00  0.00    -0.204 F 
ATOM     32  F   UNL     1      11.195  14.278  33.799  1.00  0.00    -0.204 F 
ENDBRANCH  23  25
ENDBRANCH  22  23
ENDBRANCH   3  22
TORSDOF 6
ENDMDL
MODEL 19
REMARK VINA RESULT:    -7.029      4.684      7.065
REMARK INTER + INTRA:         -11.369
REMARK INTER:                 -10.375
REMARK INTRA:                  -0.994
REMARK UNBOUND:                -1.875
REMARK SMILES O=C([O-])c1ccc(-n2cc(CNc3ccc(F)c(F)c3)c(-c3ccc(F)cc3)n2)cc1
REMARK SMILES IDX 29 1 21 2 10 3 9 4 8 5 7 6 4 7 31 8 5 9 30 10 6 11 2 12 1 13
REMARK SMILES IDX 3 14 22 15 28 16 23 17 27 18 24 19 25 20 26 21 11 22 12 23
REMARK SMILES IDX 13 25 20 26 14 27 18 28 15 29 16 30 19 31 17 32
REMARK H PARENT 12 24
ROOT
ATOM      1  N   UNL     1      14.583  19.983  36.188  1.00  0.00    -0.168 NA
ATOM      2  C   UNL     1      14.116  19.103  37.093  1.00  0.00     0.098 A 
ATOM      3  C   UNL     1      14.174  17.775  36.573  1.00  0.00     0.018 A 
ATOM      4  C   UNL     1      14.590  17.928  35.269  1.00  0.00     0.121 A 
ATOM      5  N   UNL     1      14.868  19.258  35.079  1.00  0.00    -0.240 N 
ENDROOT
BRANCH   5   6
ATOM      6  C   UNL     1      15.446  19.852  33.918  1.00  0.00     0.065 A 
ATOM      7  C   UNL     1      16.403  21.051  31.558  1.00  0.00    -0.003 A 
ATOM      8  C   UNL     1      16.195  21.819  32.706  1.00  0.00     0.012 A 
ATOM      9  C   UNL     1      16.149  19.673  31.594  1.00  0.00     0.012 A 
ATOM     10  C   UNL     1      15.723  21.227  33.880  1.00  0.00     0.029 A 
ATOM     11  C   UNL     1      15.687  19.074  32.776  1.00  0.00     0.029 A 
BRANCH   7  12
ATOM     12  C   UNL     1      16.818  21.767  30.322  1.00  0.00     0.071 C 
ATOM     13  O   UNL     1      16.276  21.588  29.245  1.00  0.00    -0.545 OA
ATOM     14  O   UNL     1      17.818  22.656  30.504  1.00  0.00    -0.545 OA
ENDBRANCH   7  12
ENDBRANCH   5   6
BRANCH   2  15
ATOM     15  C   UNL     1      13.659  19.546  38.422  1.00  0.00     0.003 A 
ATOM     16  C   UNL     1      12.589  20.446  38.547  1.00  0.00     0.013 A 
ATOM     17  C   UNL     1      14.272  19.074  39.595  1.00  0.00     0.013 A 
ATOM     18  C   UNL     1      12.163  20.879  39.810  1.00  0.00     0.040 A 
ATOM     19  C   UNL     1      13.858  19.514  40.854  1.00  0.00     0.040 A 
ATOM     20  C   UNL     1      12.807  20.414  40.949  1.00  0.00     0.123 A 
ATOM     21  F   UNL     1      12.404  20.832  42.156  1.00  0.00    -0.207 F 
ENDBRANCH   2  15
BRANCH   3  22
ATOM     22  C   UNL     1      13.870  16.479  37.248  1.00  0.00     0.152 C 
BRANCH  22  23
ATOM     23  N   UNL     1      13.749  15.353  36.327  1.00  0.00    -0.381 N 
ATOM     24  H   UNL     1      14.522  14.766  36.165  1.00  0.00     0.160 HD
BRANCH  23  25
ATOM     25  C   UNL     1      12.539  15.109  35.678  1.00  0.00     0.037 A 
ATOM     26  C   UNL     1      11.331  14.900  36.353  1.00  0.00     0.068 A 
ATOM     27  C   UNL     1      12.499  15.225  34.278  1.00  0.00     0.029 A 
ATOM     28  C   UNL     1      10.141  14.745  35.644  1.00  0.00     0.160 A 
ATOM     29  C   UNL     1      11.305  15.063  33.567  1.00  0.00     0.044 A 
ATOM     30  C   UNL     1      10.129  14.817  34.259  1.00  0.00     0.158 A 
ATOM     31  F   UNL     1       9.000  14.535  36.319  1.00  0.00    -0.204 F 
ATOM     32  F   UNL     1       8.983  14.667  33.583  1.00  0.00    -0.204 F 
ENDBRANCH  23  25
ENDBRANCH  22  23
ENDBRANCH   3  22
TORSDOF 6
ENDMDL
