REMARK 999 siam chowdhury
REMARK 999 Computational and Medicinal Chemistry
REMARK 999 [Dr. Alam's Research Team] www.alamresearch.org
REMARK 999 Arkansas State University
REMARK 999 17sa23 ligand PDBQT (pH 7.4, MMFF94, Meeko)
REMARK 999 Created: 2026-09-25 02:09:59
REMARK SMILES O=C([O-])c1ccc(-n2cc(CNc3ccc(F)c(F)c3)c(-c3ccc(F)cc3)n2)cc1
REMARK SMILES IDX 29 1 21 2 10 3 9 4 8 5 7 6 4 7 31 8 5 9 30 10 6 11 2 12 1 13
REMARK SMILES IDX 3 14 22 15 28 16 23 17 27 18 24 19 25 20 26 21 11 22 12 23
REMARK SMILES IDX 13 25 20 26 14 27 18 28 15 29 16 30 19 31 17 32
REMARK H PARENT 12 24
ROOT
ATOM      1  N   UNL     1       5.561  -0.766  -5.753  1.00  0.00    -0.168 NA
ATOM      2  C   UNL     1       6.041  -1.601  -6.693  1.00  0.00     0.098 A 
ATOM      3  C   UNL     1       5.815  -2.959  -6.316  1.00  0.00     0.018 A 
ATOM      4  C   UNL     1       5.280  -2.886  -5.048  1.00  0.00     0.121 A 
ATOM      5  N   UNL     1       5.101  -1.558  -4.754  1.00  0.00    -0.240 N 
ENDROOT
BRANCH   5   6
ATOM      6  C   UNL     1       4.459  -1.019  -3.599  1.00  0.00     0.065 A 
ATOM      7  C   UNL     1       3.020   0.023  -1.416  1.00  0.00    -0.003 A 
ATOM      8  C   UNL     1       3.332  -1.338  -1.471  1.00  0.00     0.012 A 
ATOM      9  C   UNL     1       3.445   0.871  -2.448  1.00  0.00     0.012 A 
ATOM     10  C   UNL     1       4.049  -1.858  -2.552  1.00  0.00     0.029 A 
ATOM     11  C   UNL     1       4.176   0.353  -3.528  1.00  0.00     0.029 A 
BRANCH   7  12
ATOM     12  C   UNL     1       2.176   0.485  -0.281  1.00  0.00     0.071 C 
ATOM     13  O   UNL     1       1.387  -0.247   0.291  1.00  0.00    -0.545 OA
ATOM     14  O   UNL     1       2.387   1.768   0.082  1.00  0.00    -0.545 OA
ENDBRANCH   7  12
ENDBRANCH   5   6
BRANCH   2  15
ATOM     15  C   UNL     1       6.670  -1.086  -7.921  1.00  0.00     0.003 A 
ATOM     16  C   UNL     1       6.252   0.130  -8.484  1.00  0.00     0.013 A 
ATOM     17  C   UNL     1       7.708  -1.791  -8.556  1.00  0.00     0.013 A 
ATOM     18  C   UNL     1       6.840   0.613  -9.660  1.00  0.00     0.040 A 
ATOM     19  C   UNL     1       8.286  -1.318  -9.736  1.00  0.00     0.040 A 
ATOM     20  C   UNL     1       7.845  -0.120 -10.277  1.00  0.00     0.123 A 
ATOM     21  F   UNL     1       8.403   0.339 -11.405  1.00  0.00    -0.207 F 
ENDBRANCH   2  15
BRANCH   3  22
ATOM     22  C   UNL     1       6.073  -4.212  -7.085  1.00  0.00     0.152 C 
BRANCH  22  23
ATOM     23  N   UNL     1       7.393  -4.786  -6.844  1.00  0.00    -0.381 N 
ATOM     24  H   UNL     1       8.003  -4.362  -6.198  1.00  0.00     0.160 HD
BRANCH  23  25
ATOM     25  C   UNL     1       7.791  -5.935  -7.527  1.00  0.00     0.037 A 
ATOM     26  C   UNL     1       7.336  -6.266  -8.809  1.00  0.00     0.068 A 
ATOM     27  C   UNL     1       8.811  -6.723  -6.968  1.00  0.00     0.029 A 
ATOM     28  C   UNL     1       7.837  -7.385  -9.472  1.00  0.00     0.160 A 
ATOM     29  C   UNL     1       9.309  -7.849  -7.631  1.00  0.00     0.044 A 
ATOM     30  C   UNL     1       8.811  -8.177  -8.883  1.00  0.00     0.158 A 
ATOM     31  F   UNL     1       7.373  -7.683 -10.695  1.00  0.00    -0.204 F 
ATOM     32  F   UNL     1       9.289  -9.252  -9.524  1.00  0.00    -0.204 F 
ENDBRANCH  23  25
ENDBRANCH  22  23
ENDBRANCH   3  22
TORSDOF 6
