REMARK 999 siam chowdhury
REMARK 999 Computational and Medicinal Chemistry
REMARK 999 [Dr. Alam's Research Team] www.alamresearch.org
REMARK 999 Arkansas State University
REMARK 999 22sa23 Vina docking output (7L00 FabK)
REMARK 999 Created: 2026-09-27 10:54:33
MODEL 1
REMARK VINA RESULT:    -9.047      0.000      0.000
REMARK INTER + INTRA:         -14.164
REMARK INTER:                 -12.749
REMARK INTRA:                  -1.415
REMARK UNBOUND:                -1.415
REMARK SMILES O=C([O-])c1ccc(-n2cc(CNc3ccc(F)c(C(F)(F)F)c3)c(-c3ccc(F)cc3)n2)cc1
REMARK SMILES IDX 11 1 10 2 8 3 32 4 9 5 24 6 7 7 4 8 5 9 34 10 6 11 33 12
REMARK SMILES IDX 2 13 1 14 3 15 25 16 31 17 26 18 30 19 27 20 28 21 29 22
REMARK SMILES IDX 12 23 13 25 23 26 14 27 18 28 15 29 16 30 17 31 19 32 20 33
REMARK SMILES IDX 21 34 22 35
REMARK H PARENT 12 24
ROOT
ATOM      1  C   UNL     1      15.776  22.872  38.852  1.00  0.00     0.152 C 
ENDROOT
BRANCH   1   2
ATOM      2  C   UNL     1      15.208  21.513  38.633  1.00  0.00     0.018 A 
ATOM      3  N   UNL     1      14.944  19.445  37.886  1.00  0.00    -0.240 N 
ATOM      4  N   UNL     1      13.861  19.676  38.670  1.00  0.00    -0.168 NA
ATOM      5  C   UNL     1      15.767  20.539  37.837  1.00  0.00     0.121 A 
ATOM      6  C   UNL     1      14.023  20.918  39.161  1.00  0.00     0.098 A 
BRANCH   3   7
ATOM      7  C   UNL     1      15.131  18.211  37.197  1.00  0.00     0.065 A 
ATOM      8  C   UNL     1      15.405  15.717  35.923  1.00  0.00    -0.003 A 
ATOM      9  C   UNL     1      16.229  16.049  37.007  1.00  0.00     0.012 A 
ATOM     10  C   UNL     1      14.462  16.642  35.467  1.00  0.00     0.012 A 
ATOM     11  C   UNL     1      16.099  17.298  37.635  1.00  0.00     0.029 A 
ATOM     12  C   UNL     1      14.326  17.882  36.095  1.00  0.00     0.029 A 
BRANCH   8  13
ATOM     13  C   UNL     1      15.427  14.387  35.259  1.00  0.00     0.071 C 
ATOM     14  O   UNL     1      16.222  13.516  35.564  1.00  0.00    -0.545 OA
ATOM     15  O   UNL     1      14.478  14.213  34.320  1.00  0.00    -0.545 OA
ENDBRANCH   8  13
ENDBRANCH   3   7
BRANCH   6  16
ATOM     16  C   UNL     1      13.053  21.507  40.100  1.00  0.00     0.003 A 
ATOM     17  C   UNL     1      13.268  21.452  41.486  1.00  0.00     0.013 A 
ATOM     18  C   UNL     1      11.883  22.135  39.635  1.00  0.00     0.013 A 
ATOM     19  C   UNL     1      12.325  21.989  42.376  1.00  0.00     0.040 A 
ATOM     20  C   UNL     1      10.936  22.653  40.518  1.00  0.00     0.040 A 
ATOM     21  C   UNL     1      11.167  22.576  41.884  1.00  0.00     0.123 A 
ATOM     22  F   UNL     1      10.265  23.081  42.733  1.00  0.00    -0.207 F 
ENDBRANCH   6  16
ENDBRANCH   1   2
BRANCH   1  23
ATOM     23  N   UNL     1      14.769  23.893  39.112  1.00  0.00    -0.381 N 
ATOM     24  H   UNL     1      14.565  24.139  40.044  1.00  0.00     0.160 HD
BRANCH  23  25
ATOM     25  C   UNL     1      14.091  24.525  38.081  1.00  0.00     0.035 A 
ATOM     26  C   UNL     1      14.430  24.201  36.758  1.00  0.00     0.041 A 
ATOM     27  C   UNL     1      13.191  25.576  38.286  1.00  0.00     0.029 A 
ATOM     28  C   UNL     1      13.855  24.871  35.661  1.00  0.00     0.093 A 
ATOM     29  C   UNL     1      12.604  26.241  37.210  1.00  0.00     0.042 A 
ATOM     30  C   UNL     1      12.938  25.884  35.911  1.00  0.00     0.135 A 
ATOM     31  F   UNL     1      12.364  26.551  34.903  1.00  0.00    -0.206 F 
BRANCH  28  32
ATOM     32  C   UNL     1      14.248  24.508  34.263  1.00  0.00     0.419 C 
ATOM     33  F   UNL     1      13.231  24.077  33.468  1.00  0.00    -0.166 F 
ATOM     34  F   UNL     1      14.813  25.558  33.600  1.00  0.00    -0.166 F 
ATOM     35  F   UNL     1      15.182  23.515  34.235  1.00  0.00    -0.166 F 
ENDBRANCH  28  32
ENDBRANCH  23  25
ENDBRANCH   1  23
TORSDOF 7
ENDMDL
MODEL 2
REMARK VINA RESULT:    -8.932      5.066      8.468
REMARK INTER + INTRA:         -14.002
REMARK INTER:                 -12.001
REMARK INTRA:                  -2.000
REMARK UNBOUND:                -1.415
REMARK SMILES O=C([O-])c1ccc(-n2cc(CNc3ccc(F)c(C(F)(F)F)c3)c(-c3ccc(F)cc3)n2)cc1
REMARK SMILES IDX 11 1 10 2 8 3 32 4 9 5 24 6 7 7 4 8 5 9 34 10 6 11 33 12
REMARK SMILES IDX 2 13 1 14 3 15 25 16 31 17 26 18 30 19 27 20 28 21 29 22
REMARK SMILES IDX 12 23 13 25 23 26 14 27 18 28 15 29 16 30 17 31 19 32 20 33
REMARK SMILES IDX 21 34 22 35
REMARK H PARENT 12 24
ROOT
ATOM      1  C   UNL     1      15.085  15.121  35.364  1.00  0.00     0.152 C 
ENDROOT
BRANCH   1   2
ATOM      2  C   UNL     1      13.850  15.585  34.674  1.00  0.00     0.018 A 
ATOM      3  N   UNL     1      11.803  15.612  33.828  1.00  0.00    -0.240 N 
ATOM      4  N   UNL     1      12.334  16.818  33.502  1.00  0.00    -0.168 NA
ATOM      5  C   UNL     1      12.699  14.845  34.525  1.00  0.00     0.121 A 
ATOM      6  C   UNL     1      13.567  16.832  34.040  1.00  0.00     0.098 A 
BRANCH   3   7
ATOM      7  C   UNL     1      10.485  15.233  33.437  1.00  0.00     0.065 A 
ATOM      8  C   UNL     1       7.846  14.622  32.677  1.00  0.00    -0.003 A 
ATOM      9  C   UNL     1       8.219  14.577  34.027  1.00  0.00     0.012 A 
ATOM     10  C   UNL     1       8.800  14.952  31.710  1.00  0.00     0.012 A 
ATOM     11  C   UNL     1       9.539  14.871  34.405  1.00  0.00     0.029 A 
ATOM     12  C   UNL     1      10.112  15.251  32.084  1.00  0.00     0.029 A 
BRANCH   8  13
ATOM     13  C   UNL     1       6.452  14.402  32.208  1.00  0.00     0.071 C 
ATOM     14  O   UNL     1       6.154  14.379  31.028  1.00  0.00    -0.545 OA
ATOM     15  O   UNL     1       5.555  14.198  33.192  1.00  0.00    -0.545 OA
ENDBRANCH   8  13
ENDBRANCH   3   7
BRANCH   6  16
ATOM     16  C   UNL     1      14.441  18.012  33.928  1.00  0.00     0.003 A 
ATOM     17  C   UNL     1      14.991  18.387  32.692  1.00  0.00     0.013 A 
ATOM     18  C   UNL     1      14.752  18.793  35.057  1.00  0.00     0.013 A 
ATOM     19  C   UNL     1      15.845  19.495  32.599  1.00  0.00     0.040 A 
ATOM     20  C   UNL     1      15.615  19.885  34.969  1.00  0.00     0.040 A 
ATOM     21  C   UNL     1      16.155  20.228  33.737  1.00  0.00     0.123 A 
ATOM     22  F   UNL     1      16.977  21.280  33.648  1.00  0.00    -0.207 F 
ENDBRANCH   6  16
ENDBRANCH   1   2
BRANCH   1  23
ATOM     23  N   UNL     1      14.900  14.864  36.787  1.00  0.00    -0.381 N 
ATOM     24  H   UNL     1      14.448  14.037  37.070  1.00  0.00     0.160 HD
BRANCH  23  25
ATOM     25  C   UNL     1      15.345  15.757  37.750  1.00  0.00     0.035 A 
ATOM     26  C   UNL     1      14.611  16.933  37.966  1.00  0.00     0.041 A 
ATOM     27  C   UNL     1      16.567  15.618  38.417  1.00  0.00     0.029 A 
ATOM     28  C   UNL     1      15.054  17.930  38.856  1.00  0.00     0.093 A 
ATOM     29  C   UNL     1      17.014  16.591  39.312  1.00  0.00     0.042 A 
ATOM     30  C   UNL     1      16.256  17.734  39.524  1.00  0.00     0.135 A 
ATOM     31  F   UNL     1      16.720  18.651  40.381  1.00  0.00    -0.206 F 
BRANCH  28  32
ATOM     32  C   UNL     1      14.251  19.178  39.053  1.00  0.00     0.419 C 
ATOM     33  F   UNL     1      13.780  19.372  40.315  1.00  0.00    -0.166 F 
ATOM     34  F   UNL     1      14.966  20.301  38.751  1.00  0.00    -0.166 F 
ATOM     35  F   UNL     1      13.156  19.216  38.243  1.00  0.00    -0.166 F 
ENDBRANCH  28  32
ENDBRANCH  23  25
ENDBRANCH   1  23
TORSDOF 7
ENDMDL
MODEL 3
REMARK VINA RESULT:    -8.931      0.979      1.975
REMARK INTER + INTRA:         -14.001
REMARK INTER:                 -12.399
REMARK INTRA:                  -1.602
REMARK UNBOUND:                -1.415
REMARK SMILES O=C([O-])c1ccc(-n2cc(CNc3ccc(F)c(C(F)(F)F)c3)c(-c3ccc(F)cc3)n2)cc1
REMARK SMILES IDX 11 1 10 2 8 3 32 4 9 5 24 6 7 7 4 8 5 9 34 10 6 11 33 12
REMARK SMILES IDX 2 13 1 14 3 15 25 16 31 17 26 18 30 19 27 20 28 21 29 22
REMARK SMILES IDX 12 23 13 25 23 26 14 27 18 28 15 29 16 30 17 31 19 32 20 33
REMARK SMILES IDX 21 34 22 35
REMARK H PARENT 12 24
ROOT
ATOM      1  C   UNL     1      15.941  22.697  38.970  1.00  0.00     0.152 C 
ENDROOT
BRANCH   1   2
ATOM      2  C   UNL     1      15.346  21.356  38.718  1.00  0.00     0.018 A 
ATOM      3  N   UNL     1      15.051  19.304  37.939  1.00  0.00    -0.240 N 
ATOM      4  N   UNL     1      13.953  19.554  38.695  1.00  0.00    -0.168 NA
ATOM      5  C   UNL     1      15.902  20.377  37.926  1.00  0.00     0.121 A 
ATOM      6  C   UNL     1      14.133  20.785  39.206  1.00  0.00     0.098 A 
BRANCH   3   7
ATOM      7  C   UNL     1      15.226  18.074  37.240  1.00  0.00     0.065 A 
ATOM      8  C   UNL     1      15.457  15.596  35.927  1.00  0.00    -0.003 A 
ATOM      9  C   UNL     1      16.115  15.812  37.145  1.00  0.00     0.012 A 
ATOM     10  C   UNL     1      14.704  16.627  35.359  1.00  0.00     0.012 A 
ATOM     11  C   UNL     1      16.009  17.052  37.794  1.00  0.00     0.029 A 
ATOM     12  C   UNL     1      14.591  17.859  36.006  1.00  0.00     0.029 A 
BRANCH   8  13
ATOM     13  C   UNL     1      15.457  14.287  35.221  1.00  0.00     0.071 C 
ATOM     14  O   UNL     1      16.232  13.391  35.503  1.00  0.00    -0.545 OA
ATOM     15  O   UNL     1      14.511  14.162  34.271  1.00  0.00    -0.545 OA
ENDBRANCH   8  13
ENDBRANCH   3   7
BRANCH   6  16
ATOM     16  C   UNL     1      13.152  21.387  40.125  1.00  0.00     0.003 A 
ATOM     17  C   UNL     1      13.245  21.186  41.511  1.00  0.00     0.013 A 
ATOM     18  C   UNL     1      12.092  22.175  39.639  1.00  0.00     0.013 A 
ATOM     19  C   UNL     1      12.291  21.738  42.378  1.00  0.00     0.040 A 
ATOM     20  C   UNL     1      11.132  22.710  40.498  1.00  0.00     0.040 A 
ATOM     21  C   UNL     1      11.240  22.487  41.863  1.00  0.00     0.123 A 
ATOM     22  F   UNL     1      10.326  23.007  42.690  1.00  0.00    -0.207 F 
ENDBRANCH   6  16
ENDBRANCH   1   2
BRANCH   1  23
ATOM     23  N   UNL     1      16.318  23.408  37.755  1.00  0.00    -0.381 N 
ATOM     24  H   UNL     1      17.221  23.794  37.686  1.00  0.00     0.160 HD
BRANCH  23  25
ATOM     25  C   UNL     1      15.436  23.555  36.695  1.00  0.00     0.035 A 
ATOM     26  C   UNL     1      14.326  24.398  36.858  1.00  0.00     0.041 A 
ATOM     27  C   UNL     1      15.513  22.794  35.523  1.00  0.00     0.029 A 
ATOM     28  C   UNL     1      13.337  24.520  35.863  1.00  0.00     0.093 A 
ATOM     29  C   UNL     1      14.548  22.914  34.523  1.00  0.00     0.042 A 
ATOM     30  C   UNL     1      13.472  23.773  34.700  1.00  0.00     0.135 A 
ATOM     31  F   UNL     1      12.560  23.854  33.725  1.00  0.00    -0.206 F 
BRANCH  28  32
ATOM     32  C   UNL     1      12.159  25.420  36.074  1.00  0.00     0.419 C 
ATOM     33  F   UNL     1      11.978  26.373  35.120  1.00  0.00    -0.166 F 
ATOM     34  F   UNL     1      10.986  24.725  36.128  1.00  0.00    -0.166 F 
ATOM     35  F   UNL     1      12.236  26.095  37.257  1.00  0.00    -0.166 F 
ENDBRANCH  28  32
ENDBRANCH  23  25
ENDBRANCH   1  23
TORSDOF 7
ENDMDL
MODEL 4
REMARK VINA RESULT:    -8.821      5.634      9.026
REMARK INTER + INTRA:         -13.846
REMARK INTER:                 -12.212
REMARK INTRA:                  -1.634
REMARK UNBOUND:                -1.415
REMARK SMILES O=C([O-])c1ccc(-n2cc(CNc3ccc(F)c(C(F)(F)F)c3)c(-c3ccc(F)cc3)n2)cc1
REMARK SMILES IDX 11 1 10 2 8 3 32 4 9 5 24 6 7 7 4 8 5 9 34 10 6 11 33 12
REMARK SMILES IDX 2 13 1 14 3 15 25 16 31 17 26 18 30 19 27 20 28 21 29 22
REMARK SMILES IDX 12 23 13 25 23 26 14 27 18 28 15 29 16 30 17 31 19 32 20 33
REMARK SMILES IDX 21 34 22 35
REMARK H PARENT 12 24
ROOT
ATOM      1  C   UNL     1      14.886  15.040  34.933  1.00  0.00     0.152 C 
ENDROOT
BRANCH   1   2
ATOM      2  C   UNL     1      13.614  15.514  34.323  1.00  0.00     0.018 A 
ATOM      3  N   UNL     1      11.531  15.546  33.571  1.00  0.00    -0.240 N 
ATOM      4  N   UNL     1      12.027  16.776  33.285  1.00  0.00    -0.168 NA
ATOM      5  C   UNL     1      12.470  14.761  34.188  1.00  0.00     0.121 A 
ATOM      6  C   UNL     1      13.283  16.786  33.767  1.00  0.00     0.098 A 
BRANCH   3   7
ATOM      7  C   UNL     1      10.203  15.163  33.221  1.00  0.00     0.065 A 
ATOM      8  C   UNL     1       7.546  14.544  32.533  1.00  0.00    -0.003 A 
ATOM      9  C   UNL     1       7.940  14.561  33.878  1.00  0.00     0.012 A 
ATOM     10  C   UNL     1       8.488  14.814  31.536  1.00  0.00     0.012 A 
ATOM     11  C   UNL     1       9.269  14.859  34.220  1.00  0.00     0.029 A 
ATOM     12  C   UNL     1       9.808  15.118  31.874  1.00  0.00     0.029 A 
BRANCH   8  13
ATOM     13  C   UNL     1       6.143  14.316  32.098  1.00  0.00     0.071 C 
ATOM     14  O   UNL     1       5.829  14.213  30.926  1.00  0.00    -0.545 OA
ATOM     15  O   UNL     1       5.255  14.200  33.104  1.00  0.00    -0.545 OA
ENDBRANCH   8  13
ENDBRANCH   3   7
BRANCH   6  16
ATOM     16  C   UNL     1      14.131  17.987  33.678  1.00  0.00     0.003 A 
ATOM     17  C   UNL     1      14.701  18.553  34.828  1.00  0.00     0.013 A 
ATOM     18  C   UNL     1      14.389  18.601  32.438  1.00  0.00     0.013 A 
ATOM     19  C   UNL     1      15.484  19.713  34.739  1.00  0.00     0.040 A 
ATOM     20  C   UNL     1      15.152  19.765  32.350  1.00  0.00     0.040 A 
ATOM     21  C   UNL     1      15.695  20.312  33.503  1.00  0.00     0.123 A 
ATOM     22  F   UNL     1      16.436  21.423  33.420  1.00  0.00    -0.207 F 
ENDBRANCH   6  16
ENDBRANCH   1   2
BRANCH   1  23
ATOM     23  N   UNL     1      14.794  14.796  36.367  1.00  0.00    -0.381 N 
ATOM     24  H   UNL     1      14.377  13.964  36.687  1.00  0.00     0.160 HD
BRANCH  23  25
ATOM     25  C   UNL     1      15.280  15.709  37.292  1.00  0.00     0.035 A 
ATOM     26  C   UNL     1      16.633  15.636  37.660  1.00  0.00     0.041 A 
ATOM     27  C   UNL     1      14.461  16.605  37.987  1.00  0.00     0.029 A 
ATOM     28  C   UNL     1      17.173  16.464  38.663  1.00  0.00     0.093 A 
ATOM     29  C   UNL     1      14.984  17.440  38.975  1.00  0.00     0.042 A 
ATOM     30  C   UNL     1      16.331  17.364  39.302  1.00  0.00     0.135 A 
ATOM     31  F   UNL     1      16.795  18.173  40.262  1.00  0.00    -0.206 F 
BRANCH  28  32
ATOM     32  C   UNL     1      18.617  16.351  39.039  1.00  0.00     0.419 C 
ATOM     33  F   UNL     1      18.857  15.825  40.271  1.00  0.00    -0.166 F 
ATOM     34  F   UNL     1      19.316  15.570  38.164  1.00  0.00    -0.166 F 
ATOM     35  F   UNL     1      19.246  17.561  39.027  1.00  0.00    -0.166 F 
ENDBRANCH  28  32
ENDBRANCH  23  25
ENDBRANCH   1  23
TORSDOF 7
ENDMDL
MODEL 5
REMARK VINA RESULT:    -8.755      3.746      6.493
REMARK INTER + INTRA:         -13.753
REMARK INTER:                 -12.193
REMARK INTRA:                  -1.560
REMARK UNBOUND:                -1.415
REMARK SMILES O=C([O-])c1ccc(-n2cc(CNc3ccc(F)c(C(F)(F)F)c3)c(-c3ccc(F)cc3)n2)cc1
REMARK SMILES IDX 11 1 10 2 8 3 32 4 9 5 24 6 7 7 4 8 5 9 34 10 6 11 33 12
REMARK SMILES IDX 2 13 1 14 3 15 25 16 31 17 26 18 30 19 27 20 28 21 29 22
REMARK SMILES IDX 12 23 13 25 23 26 14 27 18 28 15 29 16 30 17 31 19 32 20 33
REMARK SMILES IDX 21 34 22 35
REMARK H PARENT 12 24
ROOT
ATOM      1  C   UNL     1      16.193  19.619  36.219  1.00  0.00     0.152 C 
ENDROOT
BRANCH   1   2
ATOM      2  C   UNL     1      15.413  18.360  36.067  1.00  0.00     0.018 A 
ATOM      3  N   UNL     1      13.894  16.903  35.379  1.00  0.00    -0.240 N 
ATOM      4  N   UNL     1      14.620  16.238  36.313  1.00  0.00    -0.168 NA
ATOM      5  C   UNL     1      14.344  18.186  35.218  1.00  0.00     0.121 A 
ATOM      6  C   UNL     1      15.571  17.099  36.717  1.00  0.00     0.098 A 
BRANCH   3   7
ATOM      7  C   UNL     1      12.791  16.299  34.705  1.00  0.00     0.065 A 
ATOM      8  C   UNL     1      10.530  15.208  33.434  1.00  0.00    -0.003 A 
ATOM      9  C   UNL     1      10.919  14.748  34.700  1.00  0.00     0.012 A 
ATOM     10  C   UNL     1      11.287  16.198  32.800  1.00  0.00     0.012 A 
ATOM     11  C   UNL     1      12.053  15.284  35.329  1.00  0.00     0.029 A 
ATOM     12  C   UNL     1      12.412  16.738  33.427  1.00  0.00     0.029 A 
BRANCH   8  13
ATOM     13  C   UNL     1       9.299  14.747  32.741  1.00  0.00     0.071 C 
ATOM     14  O   UNL     1       9.297  14.389  31.578  1.00  0.00    -0.545 OA
ATOM     15  O   UNL     1       8.195  14.725  33.513  1.00  0.00    -0.545 OA
ENDBRANCH   8  13
ENDBRANCH   3   7
BRANCH   6  16
ATOM     16  C   UNL     1      16.588  16.711  37.709  1.00  0.00     0.003 A 
ATOM     17  C   UNL     1      17.805  16.137  37.307  1.00  0.00     0.013 A 
ATOM     18  C   UNL     1      16.367  16.900  39.086  1.00  0.00     0.013 A 
ATOM     19  C   UNL     1      18.756  15.743  38.259  1.00  0.00     0.040 A 
ATOM     20  C   UNL     1      17.305  16.492  40.035  1.00  0.00     0.040 A 
ATOM     21  C   UNL     1      18.494  15.917  39.612  1.00  0.00     0.123 A 
ATOM     22  F   UNL     1      19.400  15.533  40.519  1.00  0.00    -0.207 F 
ENDBRANCH   6  16
ENDBRANCH   1   2
BRANCH   1  23
ATOM     23  N   UNL     1      15.372  20.822  36.205  1.00  0.00    -0.381 N 
ATOM     24  H   UNL     1      15.111  21.216  35.341  1.00  0.00     0.160 HD
BRANCH  23  25
ATOM     25  C   UNL     1      14.948  21.426  37.379  1.00  0.00     0.035 A 
ATOM     26  C   UNL     1      14.439  20.616  38.405  1.00  0.00     0.041 A 
ATOM     27  C   UNL     1      14.864  22.814  37.540  1.00  0.00     0.029 A 
ATOM     28  C   UNL     1      13.900  21.165  39.585  1.00  0.00     0.093 A 
ATOM     29  C   UNL     1      14.344  23.373  38.708  1.00  0.00     0.042 A 
ATOM     30  C   UNL     1      13.869  22.547  39.718  1.00  0.00     0.135 A 
ATOM     31  F   UNL     1      13.368  23.118  40.819  1.00  0.00    -0.206 F 
BRANCH  28  32
ATOM     32  C   UNL     1      13.354  20.270  40.654  1.00  0.00     0.419 C 
ATOM     33  F   UNL     1      13.728  18.965  40.565  1.00  0.00    -0.166 F 
ATOM     34  F   UNL     1      13.729  20.676  41.902  1.00  0.00    -0.166 F 
ATOM     35  F   UNL     1      11.991  20.262  40.669  1.00  0.00    -0.166 F 
ENDBRANCH  28  32
ENDBRANCH  23  25
ENDBRANCH   1  23
TORSDOF 7
ENDMDL
MODEL 6
REMARK VINA RESULT:    -8.738      4.931      8.556
REMARK INTER + INTRA:         -13.729
REMARK INTER:                 -11.961
REMARK INTRA:                  -1.768
REMARK UNBOUND:                -1.415
REMARK SMILES O=C([O-])c1ccc(-n2cc(CNc3ccc(F)c(C(F)(F)F)c3)c(-c3ccc(F)cc3)n2)cc1
REMARK SMILES IDX 11 1 10 2 8 3 32 4 9 5 24 6 7 7 4 8 5 9 34 10 6 11 33 12
REMARK SMILES IDX 2 13 1 14 3 15 25 16 31 17 26 18 30 19 27 20 28 21 29 22
REMARK SMILES IDX 12 23 13 25 23 26 14 27 18 28 15 29 16 30 17 31 19 32 20 33
REMARK SMILES IDX 21 34 22 35
REMARK H PARENT 12 24
ROOT
ATOM      1  C   UNL     1      15.669  19.492  34.890  1.00  0.00     0.152 C 
ENDROOT
BRANCH   1   2
ATOM      2  C   UNL     1      14.711  20.385  35.598  1.00  0.00     0.018 A 
ATOM      3  N   UNL     1      13.403  21.232  37.171  1.00  0.00    -0.240 N 
ATOM      4  N   UNL     1      13.226  22.039  36.095  1.00  0.00    -0.168 NA
ATOM      5  C   UNL     1      14.284  20.221  36.896  1.00  0.00     0.121 A 
ATOM      6  C   UNL     1      14.041  21.558  35.139  1.00  0.00     0.098 A 
BRANCH   3   7
ATOM      7  C   UNL     1      12.706  21.440  38.398  1.00  0.00     0.065 A 
ATOM      8  C   UNL     1      11.217  21.786  40.761  1.00  0.00    -0.003 A 
ATOM      9  C   UNL     1      11.212  22.779  39.772  1.00  0.00     0.012 A 
ATOM     10  C   UNL     1      11.985  20.633  40.573  1.00  0.00     0.012 A 
ATOM     11  C   UNL     1      11.963  22.611  38.599  1.00  0.00     0.029 A 
ATOM     12  C   UNL     1      12.728  20.460  39.403  1.00  0.00     0.029 A 
BRANCH   8  13
ATOM     13  C   UNL     1      10.387  21.856  41.992  1.00  0.00     0.071 C 
ATOM     14  O   UNL     1      10.388  22.824  42.729  1.00  0.00    -0.545 OA
ATOM     15  O   UNL     1       9.609  20.777  42.205  1.00  0.00    -0.545 OA
ENDBRANCH   8  13
ENDBRANCH   3   7
BRANCH   6  16
ATOM     16  C   UNL     1      14.153  22.212  33.824  1.00  0.00     0.003 A 
ATOM     17  C   UNL     1      15.359  22.803  33.414  1.00  0.00     0.013 A 
ATOM     18  C   UNL     1      13.055  22.267  32.946  1.00  0.00     0.013 A 
ATOM     19  C   UNL     1      15.450  23.449  32.172  1.00  0.00     0.040 A 
ATOM     20  C   UNL     1      13.138  22.925  31.719  1.00  0.00     0.040 A 
ATOM     21  C   UNL     1      14.338  23.510  31.341  1.00  0.00     0.123 A 
ATOM     22  F   UNL     1      14.424  24.134  30.161  1.00  0.00    -0.207 F 
ENDBRANCH   6  16
ENDBRANCH   1   2
BRANCH   1  23
ATOM     23  N   UNL     1      15.222  19.085  33.565  1.00  0.00    -0.381 N 
ATOM     24  H   UNL     1      15.770  19.320  32.781  1.00  0.00     0.160 HD
BRANCH  23  25
ATOM     25  C   UNL     1      14.045  18.376  33.380  1.00  0.00     0.035 A 
ATOM     26  C   UNL     1      13.866  17.176  34.086  1.00  0.00     0.041 A 
ATOM     27  C   UNL     1      13.088  18.717  32.418  1.00  0.00     0.029 A 
ATOM     28  C   UNL     1      12.743  16.354  33.877  1.00  0.00     0.093 A 
ATOM     29  C   UNL     1      11.963  17.919  32.209  1.00  0.00     0.042 A 
ATOM     30  C   UNL     1      11.799  16.749  32.938  1.00  0.00     0.135 A 
ATOM     31  F   UNL     1      10.714  16.003  32.702  1.00  0.00    -0.206 F 
BRANCH  28  32
ATOM     32  C   UNL     1      12.590  15.074  34.639  1.00  0.00     0.419 C 
ATOM     33  F   UNL     1      13.527  14.857  35.601  1.00  0.00    -0.166 F 
ATOM     34  F   UNL     1      11.386  14.997  35.275  1.00  0.00    -0.166 F 
ATOM     35  F   UNL     1      12.642  13.983  33.823  1.00  0.00    -0.166 F 
ENDBRANCH  28  32
ENDBRANCH  23  25
ENDBRANCH   1  23
TORSDOF 7
ENDMDL
MODEL 7
REMARK VINA RESULT:    -8.699      3.722      5.993
REMARK INTER + INTRA:         -13.673
REMARK INTER:                 -12.341
REMARK INTRA:                  -1.333
REMARK UNBOUND:                -1.415
REMARK SMILES O=C([O-])c1ccc(-n2cc(CNc3ccc(F)c(C(F)(F)F)c3)c(-c3ccc(F)cc3)n2)cc1
REMARK SMILES IDX 11 1 10 2 8 3 32 4 9 5 24 6 7 7 4 8 5 9 34 10 6 11 33 12
REMARK SMILES IDX 2 13 1 14 3 15 25 16 31 17 26 18 30 19 27 20 28 21 29 22
REMARK SMILES IDX 12 23 13 25 23 26 14 27 18 28 15 29 16 30 17 31 19 32 20 33
REMARK SMILES IDX 21 34 22 35
REMARK H PARENT 12 24
ROOT
ATOM      1  C   UNL     1      16.161  19.586  36.281  1.00  0.00     0.152 C 
ENDROOT
BRANCH   1   2
ATOM      2  C   UNL     1      15.391  18.327  36.088  1.00  0.00     0.018 A 
ATOM      3  N   UNL     1      13.884  16.881  35.351  1.00  0.00    -0.240 N 
ATOM      4  N   UNL     1      14.615  16.192  36.263  1.00  0.00    -0.168 NA
ATOM      5  C   UNL     1      14.323  18.173  35.233  1.00  0.00     0.121 A 
ATOM      6  C   UNL     1      15.560  17.047  36.696  1.00  0.00     0.098 A 
BRANCH   3   7
ATOM      7  C   UNL     1      12.786  16.292  34.658  1.00  0.00     0.065 A 
ATOM      8  C   UNL     1      10.533  15.222  33.356  1.00  0.00    -0.003 A 
ATOM      9  C   UNL     1      10.955  14.693  34.583  1.00  0.00     0.012 A 
ATOM     10  C   UNL     1      11.252  16.270  32.775  1.00  0.00     0.012 A 
ATOM     11  C   UNL     1      12.086  15.219  35.227  1.00  0.00     0.029 A 
ATOM     12  C   UNL     1      12.373  16.800  33.417  1.00  0.00     0.029 A 
BRANCH   8  13
ATOM     13  C   UNL     1       9.302  14.772  32.654  1.00  0.00     0.071 C 
ATOM     14  O   UNL     1       9.310  14.387  31.499  1.00  0.00    -0.545 OA
ATOM     15  O   UNL     1       8.186  14.792  33.409  1.00  0.00    -0.545 OA
ENDBRANCH   8  13
ENDBRANCH   3   7
BRANCH   6  16
ATOM     16  C   UNL     1      16.580  16.634  37.674  1.00  0.00     0.003 A 
ATOM     17  C   UNL     1      16.360  16.786  39.052  1.00  0.00     0.013 A 
ATOM     18  C   UNL     1      17.803  16.079  37.256  1.00  0.00     0.013 A 
ATOM     19  C   UNL     1      17.347  16.418  39.978  1.00  0.00     0.040 A 
ATOM     20  C   UNL     1      18.794  15.729  38.174  1.00  0.00     0.040 A 
ATOM     21  C   UNL     1      18.556  15.900  39.530  1.00  0.00     0.123 A 
ATOM     22  F   UNL     1      19.500  15.556  40.413  1.00  0.00    -0.207 F 
ENDBRANCH   6  16
ENDBRANCH   1   2
BRANCH   1  23
ATOM     23  N   UNL     1      15.390  20.792  36.009  1.00  0.00    -0.381 N 
ATOM     24  H   UNL     1      15.054  20.952  35.098  1.00  0.00     0.160 HD
BRANCH  23  25
ATOM     25  C   UNL     1      15.118  21.720  37.003  1.00  0.00     0.035 A 
ATOM     26  C   UNL     1      13.797  22.167  37.161  1.00  0.00     0.041 A 
ATOM     27  C   UNL     1      16.114  22.345  37.761  1.00  0.00     0.029 A 
ATOM     28  C   UNL     1      13.462  23.179  38.082  1.00  0.00     0.093 A 
ATOM     29  C   UNL     1      15.796  23.341  38.686  1.00  0.00     0.042 A 
ATOM     30  C   UNL     1      14.478  23.747  38.839  1.00  0.00     0.135 A 
ATOM     31  F   UNL     1      14.212  24.711  39.728  1.00  0.00    -0.206 F 
BRANCH  28  32
ATOM     32  C   UNL     1      12.044  23.640  38.216  1.00  0.00     0.419 C 
ATOM     33  F   UNL     1      11.464  23.389  39.420  1.00  0.00    -0.166 F 
ATOM     34  F   UNL     1      11.922  24.985  38.021  1.00  0.00    -0.166 F 
ATOM     35  F   UNL     1      11.228  23.063  37.288  1.00  0.00    -0.166 F 
ENDBRANCH  28  32
ENDBRANCH  23  25
ENDBRANCH   1  23
TORSDOF 7
ENDMDL
MODEL 8
REMARK VINA RESULT:    -8.575      5.323      8.853
REMARK INTER + INTRA:         -13.499
REMARK INTER:                 -12.106
REMARK INTRA:                  -1.393
REMARK UNBOUND:                -1.415
REMARK SMILES O=C([O-])c1ccc(-n2cc(CNc3ccc(F)c(C(F)(F)F)c3)c(-c3ccc(F)cc3)n2)cc1
REMARK SMILES IDX 11 1 10 2 8 3 32 4 9 5 24 6 7 7 4 8 5 9 34 10 6 11 33 12
REMARK SMILES IDX 2 13 1 14 3 15 25 16 31 17 26 18 30 19 27 20 28 21 29 22
REMARK SMILES IDX 12 23 13 25 23 26 14 27 18 28 15 29 16 30 17 31 19 32 20 33
REMARK SMILES IDX 21 34 22 35
REMARK H PARENT 12 24
ROOT
ATOM      1  C   UNL     1      14.889  17.120  35.057  1.00  0.00     0.152 C 
ENDROOT
BRANCH   1   2
ATOM      2  C   UNL     1      14.689  18.202  36.059  1.00  0.00     0.018 A 
ATOM      3  N   UNL     1      13.904  20.014  37.062  1.00  0.00    -0.240 N 
ATOM      4  N   UNL     1      14.888  19.559  37.878  1.00  0.00    -0.168 NA
ATOM      5  C   UNL     1      13.769  19.221  35.953  1.00  0.00     0.121 A 
ATOM      6  C   UNL     1      15.353  18.437  37.300  1.00  0.00     0.098 A 
BRANCH   3   7
ATOM      7  C   UNL     1      13.159  21.194  37.357  1.00  0.00     0.065 A 
ATOM      8  C   UNL     1      11.571  23.452  37.899  1.00  0.00    -0.003 A 
ATOM      9  C   UNL     1      12.139  23.278  36.630  1.00  0.00     0.012 A 
ATOM     10  C   UNL     1      11.817  22.506  38.899  1.00  0.00     0.012 A 
ATOM     11  C   UNL     1      12.940  22.157  36.363  1.00  0.00     0.029 A 
ATOM     12  C   UNL     1      12.608  21.386  38.633  1.00  0.00     0.029 A 
BRANCH   8  13
ATOM     13  C   UNL     1      10.648  24.569  38.234  1.00  0.00     0.071 C 
ATOM     14  O   UNL     1      10.736  25.668  37.717  1.00  0.00    -0.545 OA
ATOM     15  O   UNL     1       9.690  24.257  39.128  1.00  0.00    -0.545 OA
ENDBRANCH   8  13
ENDBRANCH   3   7
BRANCH   6  16
ATOM     16  C   UNL     1      16.414  17.632  37.928  1.00  0.00     0.003 A 
ATOM     17  C   UNL     1      16.098  16.581  38.803  1.00  0.00     0.013 A 
ATOM     18  C   UNL     1      17.772  17.896  37.673  1.00  0.00     0.013 A 
ATOM     19  C   UNL     1      17.113  15.837  39.421  1.00  0.00     0.040 A 
ATOM     20  C   UNL     1      18.784  17.169  38.300  1.00  0.00     0.040 A 
ATOM     21  C   UNL     1      18.445  16.142  39.170  1.00  0.00     0.123 A 
ATOM     22  F   UNL     1      19.413  15.437  39.766  1.00  0.00    -0.207 F 
ENDBRANCH   6  16
ENDBRANCH   1   2
BRANCH   1  23
ATOM     23  N   UNL     1      14.495  15.800  35.532  1.00  0.00    -0.381 N 
ATOM     24  H   UNL     1      15.183  15.193  35.889  1.00  0.00     0.160 HD
BRANCH  23  25
ATOM     25  C   UNL     1      13.174  15.379  35.495  1.00  0.00     0.035 A 
ATOM     26  C   UNL     1      12.440  15.576  34.315  1.00  0.00     0.041 A 
ATOM     27  C   UNL     1      12.490  14.901  36.618  1.00  0.00     0.029 A 
ATOM     28  C   UNL     1      11.069  15.264  34.235  1.00  0.00     0.093 A 
ATOM     29  C   UNL     1      11.135  14.576  36.551  1.00  0.00     0.042 A 
ATOM     30  C   UNL     1      10.438  14.758  35.364  1.00  0.00     0.135 A 
ATOM     31  F   UNL     1       9.137  14.446  35.340  1.00  0.00    -0.206 F 
BRANCH  28  32
ATOM     32  C   UNL     1      10.313  15.499  32.964  1.00  0.00     0.419 C 
ATOM     33  F   UNL     1       8.968  15.644  33.107  1.00  0.00    -0.166 F 
ATOM     34  F   UNL     1      10.738  16.622  32.315  1.00  0.00    -0.166 F 
ATOM     35  F   UNL     1      10.480  14.480  32.074  1.00  0.00    -0.166 F 
ENDBRANCH  28  32
ENDBRANCH  23  25
ENDBRANCH   1  23
TORSDOF 7
ENDMDL
MODEL 9
REMARK VINA RESULT:    -8.532      5.112      7.681
REMARK INTER + INTRA:         -13.438
REMARK INTER:                 -10.904
REMARK INTRA:                  -2.534
REMARK UNBOUND:                -1.415
REMARK SMILES O=C([O-])c1ccc(-n2cc(CNc3ccc(F)c(C(F)(F)F)c3)c(-c3ccc(F)cc3)n2)cc1
REMARK SMILES IDX 11 1 10 2 8 3 32 4 9 5 24 6 7 7 4 8 5 9 34 10 6 11 33 12
REMARK SMILES IDX 2 13 1 14 3 15 25 16 31 17 26 18 30 19 27 20 28 21 29 22
REMARK SMILES IDX 12 23 13 25 23 26 14 27 18 28 15 29 16 30 17 31 19 32 20 33
REMARK SMILES IDX 21 34 22 35
REMARK H PARENT 12 24
ROOT
ATOM      1  C   UNL     1      14.243  18.180  33.340  1.00  0.00     0.152 C 
ENDROOT
BRANCH   1   2
ATOM      2  C   UNL     1      13.172  17.184  33.616  1.00  0.00     0.018 A 
ATOM      3  N   UNL     1      11.321  15.984  33.417  1.00  0.00    -0.240 N 
ATOM      4  N   UNL     1      11.883  15.573  34.582  1.00  0.00    -0.168 NA
ATOM      5  C   UNL     1      12.071  16.961  32.819  1.00  0.00     0.121 A 
ATOM      6  C   UNL     1      13.028  16.269  34.701  1.00  0.00     0.098 A 
BRANCH   3   7
ATOM      7  C   UNL     1      10.087  15.452  32.942  1.00  0.00     0.065 A 
ATOM      8  C   UNL     1       7.596  14.534  32.008  1.00  0.00    -0.003 A 
ATOM      9  C   UNL     1       7.868  14.558  33.383  1.00  0.00     0.012 A 
ATOM     10  C   UNL     1       8.579  14.949  31.105  1.00  0.00     0.012 A 
ATOM     11  C   UNL     1       9.115  15.006  33.847  1.00  0.00     0.029 A 
ATOM     12  C   UNL     1       9.817  15.401  31.565  1.00  0.00     0.029 A 
BRANCH   8  13
ATOM     13  C   UNL     1       6.274  14.150  31.445  1.00  0.00     0.071 C 
ATOM     14  O   UNL     1       5.304  13.930  32.146  1.00  0.00    -0.545 OA
ATOM     15  O   UNL     1       6.231  14.100  30.100  1.00  0.00    -0.545 OA
ENDBRANCH   8  13
ENDBRANCH   3   7
BRANCH   6  16
ATOM     16  C   UNL     1      13.942  16.057  35.837  1.00  0.00     0.003 A 
ATOM     17  C   UNL     1      13.666  16.614  37.096  1.00  0.00     0.013 A 
ATOM     18  C   UNL     1      15.116  15.297  35.691  1.00  0.00     0.013 A 
ATOM     19  C   UNL     1      14.555  16.432  38.166  1.00  0.00     0.040 A 
ATOM     20  C   UNL     1      16.010  15.130  36.748  1.00  0.00     0.040 A 
ATOM     21  C   UNL     1      15.721  15.700  37.980  1.00  0.00     0.123 A 
ATOM     22  F   UNL     1      16.572  15.534  38.999  1.00  0.00    -0.207 F 
ENDBRANCH   6  16
ENDBRANCH   1   2
BRANCH   1  23
ATOM     23  N   UNL     1      14.140  19.391  34.144  1.00  0.00    -0.381 N 
ATOM     24  H   UNL     1      13.616  20.151  33.802  1.00  0.00     0.160 HD
BRANCH  23  25
ATOM     25  C   UNL     1      14.761  19.498  35.380  1.00  0.00     0.035 A 
ATOM     26  C   UNL     1      14.117  20.223  36.394  1.00  0.00     0.041 A 
ATOM     27  C   UNL     1      16.063  19.046  35.624  1.00  0.00     0.029 A 
ATOM     28  C   UNL     1      14.729  20.457  37.640  1.00  0.00     0.093 A 
ATOM     29  C   UNL     1      16.678  19.260  36.858  1.00  0.00     0.042 A 
ATOM     30  C   UNL     1      16.008  19.959  37.853  1.00  0.00     0.135 A 
ATOM     31  F   UNL     1      16.633  20.155  39.020  1.00  0.00    -0.206 F 
BRANCH  28  32
ATOM     32  C   UNL     1      14.018  21.245  38.696  1.00  0.00     0.419 C 
ATOM     33  F   UNL     1      14.800  22.104  39.404  1.00  0.00    -0.166 F 
ATOM     34  F   UNL     1      13.012  22.006  38.177  1.00  0.00    -0.166 F 
ATOM     35  F   UNL     1      13.424  20.440  39.622  1.00  0.00    -0.166 F 
ENDBRANCH  28  32
ENDBRANCH  23  25
ENDBRANCH   1  23
TORSDOF 7
ENDMDL
MODEL 10
REMARK VINA RESULT:    -8.520      3.030      6.053
REMARK INTER + INTRA:         -13.421
REMARK INTER:                 -11.820
REMARK INTRA:                  -1.601
REMARK UNBOUND:                -1.415
REMARK SMILES O=C([O-])c1ccc(-n2cc(CNc3ccc(F)c(C(F)(F)F)c3)c(-c3ccc(F)cc3)n2)cc1
REMARK SMILES IDX 11 1 10 2 8 3 32 4 9 5 24 6 7 7 4 8 5 9 34 10 6 11 33 12
REMARK SMILES IDX 2 13 1 14 3 15 25 16 31 17 26 18 30 19 27 20 28 21 29 22
REMARK SMILES IDX 12 23 13 25 23 26 14 27 18 28 15 29 16 30 17 31 19 32 20 33
REMARK SMILES IDX 21 34 22 35
REMARK H PARENT 12 24
ROOT
ATOM      1  C   UNL     1      14.876  24.033  36.206  1.00  0.00     0.152 C 
ENDROOT
BRANCH   1   2
ATOM      2  C   UNL     1      15.233  22.588  36.181  1.00  0.00     0.018 A 
ATOM      3  N   UNL     1      15.971  20.598  36.813  1.00  0.00    -0.240 N 
ATOM      4  N   UNL     1      15.590  20.437  35.520  1.00  0.00    -0.168 NA
ATOM      5  C   UNL     1      15.777  21.887  37.234  1.00  0.00     0.121 A 
ATOM      6  C   UNL     1      15.106  21.630  35.131  1.00  0.00     0.098 A 
BRANCH   3   7
ATOM      7  C   UNL     1      16.529  19.531  37.577  1.00  0.00     0.065 A 
ATOM      8  C   UNL     1      17.545  17.335  39.014  1.00  0.00    -0.003 A 
ATOM      9  C   UNL     1      16.435  18.042  39.498  1.00  0.00     0.012 A 
ATOM     10  C   UNL     1      18.155  17.743  37.825  1.00  0.00     0.012 A 
ATOM     11  C   UNL     1      15.936  19.144  38.786  1.00  0.00     0.029 A 
ATOM     12  C   UNL     1      17.655  18.835  37.111  1.00  0.00     0.029 A 
BRANCH   8  13
ATOM     13  C   UNL     1      18.081  16.112  39.668  1.00  0.00     0.071 C 
ATOM     14  O   UNL     1      17.669  15.708  40.740  1.00  0.00    -0.545 OA
ATOM     15  O   UNL     1      19.034  15.472  38.964  1.00  0.00    -0.545 OA
ENDBRANCH   8  13
ENDBRANCH   3   7
BRANCH   6  16
ATOM     16  C   UNL     1      14.552  21.831  33.781  1.00  0.00     0.003 A 
ATOM     17  C   UNL     1      15.392  21.889  32.658  1.00  0.00     0.013 A 
ATOM     18  C   UNL     1      13.166  21.975  33.581  1.00  0.00     0.013 A 
ATOM     19  C   UNL     1      14.860  22.109  31.380  1.00  0.00     0.040 A 
ATOM     20  C   UNL     1      12.637  22.212  32.312  1.00  0.00     0.040 A 
ATOM     21  C   UNL     1      13.490  22.276  31.220  1.00  0.00     0.123 A 
ATOM     22  F   UNL     1      12.984  22.494  30.001  1.00  0.00    -0.207 F 
ENDBRANCH   6  16
ENDBRANCH   1   2
BRANCH   1  23
ATOM     23  N   UNL     1      14.486  24.518  37.524  1.00  0.00    -0.381 N 
ATOM     24  H   UNL     1      15.165  24.935  38.102  1.00  0.00     0.160 HD
BRANCH  23  25
ATOM     25  C   UNL     1      13.182  24.405  37.983  1.00  0.00     0.035 A 
ATOM     26  C   UNL     1      12.924  23.555  39.069  1.00  0.00     0.041 A 
ATOM     27  C   UNL     1      12.087  24.980  37.329  1.00  0.00     0.029 A 
ATOM     28  C   UNL     1      11.615  23.315  39.527  1.00  0.00     0.093 A 
ATOM     29  C   UNL     1      10.785  24.762  37.779  1.00  0.00     0.042 A 
ATOM     30  C   UNL     1      10.560  23.935  38.871  1.00  0.00     0.135 A 
ATOM     31  F   UNL     1       9.297  23.740  39.267  1.00  0.00    -0.206 F 
BRANCH  28  32
ATOM     32  C   UNL     1      11.375  22.392  40.682  1.00  0.00     0.419 C 
ATOM     33  F   UNL     1      10.635  21.286  40.396  1.00  0.00    -0.166 F 
ATOM     34  F   UNL     1      12.540  21.927  41.217  1.00  0.00    -0.166 F 
ATOM     35  F   UNL     1      10.726  23.013  41.707  1.00  0.00    -0.166 F 
ENDBRANCH  28  32
ENDBRANCH  23  25
ENDBRANCH   1  23
TORSDOF 7
ENDMDL
MODEL 11
REMARK VINA RESULT:    -8.418      5.337      9.158
REMARK INTER + INTRA:         -13.278
REMARK INTER:                 -12.053
REMARK INTRA:                  -1.225
REMARK UNBOUND:                -1.415
REMARK SMILES O=C([O-])c1ccc(-n2cc(CNc3ccc(F)c(C(F)(F)F)c3)c(-c3ccc(F)cc3)n2)cc1
REMARK SMILES IDX 11 1 10 2 8 3 32 4 9 5 24 6 7 7 4 8 5 9 34 10 6 11 33 12
REMARK SMILES IDX 2 13 1 14 3 15 25 16 31 17 26 18 30 19 27 20 28 21 29 22
REMARK SMILES IDX 12 23 13 25 23 26 14 27 18 28 15 29 16 30 17 31 19 32 20 33
REMARK SMILES IDX 21 34 22 35
REMARK H PARENT 12 24
ROOT
ATOM      1  C   UNL     1      14.505  17.145  34.622  1.00  0.00     0.152 C 
ENDROOT
BRANCH   1   2
ATOM      2  C   UNL     1      14.215  18.459  35.259  1.00  0.00     0.018 A 
ATOM      3  N   UNL     1      13.662  19.982  36.768  1.00  0.00    -0.240 N 
ATOM      4  N   UNL     1      13.871  20.681  35.624  1.00  0.00    -0.168 NA
ATOM      5  C   UNL     1      13.851  18.640  36.574  1.00  0.00     0.121 A 
ATOM      6  C   UNL     1      14.243  19.773  34.703  1.00  0.00     0.098 A 
BRANCH   3   7
ATOM      7  C   UNL     1      13.262  20.616  37.981  1.00  0.00     0.065 A 
ATOM      8  C   UNL     1      12.369  21.772  40.386  1.00  0.00    -0.003 A 
ATOM      9  C   UNL     1      11.886  22.241  39.156  1.00  0.00     0.012 A 
ATOM     10  C   UNL     1      13.313  20.741  40.407  1.00  0.00     0.012 A 
ATOM     11  C   UNL     1      12.341  21.671  37.957  1.00  0.00     0.029 A 
ATOM     12  C   UNL     1      13.761  20.168  39.215  1.00  0.00     0.029 A 
BRANCH   8  13
ATOM     13  C   UNL     1      11.877  22.269  41.698  1.00  0.00     0.071 C 
ATOM     14  O   UNL     1      12.519  22.152  42.725  1.00  0.00    -0.545 OA
ATOM     15  O   UNL     1      10.681  22.887  41.652  1.00  0.00    -0.545 OA
ENDBRANCH   8  13
ENDBRANCH   3   7
BRANCH   6  16
ATOM     16  C   UNL     1      14.600  20.172  33.331  1.00  0.00     0.003 A 
ATOM     17  C   UNL     1      15.867  19.879  32.802  1.00  0.00     0.013 A 
ATOM     18  C   UNL     1      13.683  20.860  32.515  1.00  0.00     0.013 A 
ATOM     19  C   UNL     1      16.210  20.287  31.505  1.00  0.00     0.040 A 
ATOM     20  C   UNL     1      14.029  21.282  31.231  1.00  0.00     0.040 A 
ATOM     21  C   UNL     1      15.292  20.991  30.736  1.00  0.00     0.123 A 
ATOM     22  F   UNL     1      15.623  21.386  29.502  1.00  0.00    -0.207 F 
ENDBRANCH   6  16
ENDBRANCH   1   2
BRANCH   1  23
ATOM     23  N   UNL     1      14.054  16.002  35.404  1.00  0.00    -0.381 N 
ATOM     24  H   UNL     1      14.680  15.572  36.030  1.00  0.00     0.160 HD
BRANCH  23  25
ATOM     25  C   UNL     1      12.764  15.505  35.287  1.00  0.00     0.035 A 
ATOM     26  C   UNL     1      12.097  15.651  34.061  1.00  0.00     0.041 A 
ATOM     27  C   UNL     1      12.038  14.996  36.370  1.00  0.00     0.029 A 
ATOM     28  C   UNL     1      10.754  15.260  33.898  1.00  0.00     0.093 A 
ATOM     29  C   UNL     1      10.711  14.593  36.220  1.00  0.00     0.042 A 
ATOM     30  C   UNL     1      10.082  14.726  34.990  1.00  0.00     0.135 A 
ATOM     31  F   UNL     1       8.806  14.340  34.887  1.00  0.00    -0.206 F 
BRANCH  28  32
ATOM     32  C   UNL     1      10.069  15.441  32.579  1.00  0.00     0.419 C 
ATOM     33  F   UNL     1      10.229  14.418  31.697  1.00  0.00    -0.166 F 
ATOM     34  F   UNL     1       8.721  15.599  32.719  1.00  0.00    -0.166 F 
ATOM     35  F   UNL     1      10.500  16.558  31.927  1.00  0.00    -0.166 F 
ENDBRANCH  28  32
ENDBRANCH  23  25
ENDBRANCH   1  23
TORSDOF 7
ENDMDL
MODEL 12
REMARK VINA RESULT:    -8.386      4.840      7.172
REMARK INTER + INTRA:         -13.233
REMARK INTER:                 -10.245
REMARK INTRA:                  -2.988
REMARK UNBOUND:                -1.415
REMARK SMILES O=C([O-])c1ccc(-n2cc(CNc3ccc(F)c(C(F)(F)F)c3)c(-c3ccc(F)cc3)n2)cc1
REMARK SMILES IDX 11 1 10 2 8 3 32 4 9 5 24 6 7 7 4 8 5 9 34 10 6 11 33 12
REMARK SMILES IDX 2 13 1 14 3 15 25 16 31 17 26 18 30 19 27 20 28 21 29 22
REMARK SMILES IDX 12 23 13 25 23 26 14 27 18 28 15 29 16 30 17 31 19 32 20 33
REMARK SMILES IDX 21 34 22 35
REMARK H PARENT 12 24
ROOT
ATOM      1  C   UNL     1      14.999  18.221  33.729  1.00  0.00     0.152 C 
ENDROOT
BRANCH   1   2
ATOM      2  C   UNL     1      13.865  17.325  34.086  1.00  0.00     0.018 A 
ATOM      3  N   UNL     1      11.961  16.200  33.964  1.00  0.00    -0.240 N 
ATOM      4  N   UNL     1      12.453  15.925  35.198  1.00  0.00    -0.168 NA
ATOM      5  C   UNL     1      12.786  17.049  33.276  1.00  0.00     0.121 A 
ATOM      6  C   UNL     1      13.629  16.574  35.276  1.00  0.00     0.098 A 
BRANCH   3   7
ATOM      7  C   UNL     1      10.719  15.669  33.507  1.00  0.00     0.065 A 
ATOM      8  C   UNL     1       8.208  14.746  32.635  1.00  0.00    -0.003 A 
ATOM      9  C   UNL     1       8.596  14.576  33.971  1.00  0.00     0.012 A 
ATOM     10  C   UNL     1       9.086  15.358  31.735  1.00  0.00     0.012 A 
ATOM     11  C   UNL     1       9.854  15.026  34.402  1.00  0.00     0.029 A 
ATOM     12  C   UNL     1      10.335  15.813  32.165  1.00  0.00     0.029 A 
BRANCH   8  13
ATOM     13  C   UNL     1       6.864  14.369  32.122  1.00  0.00     0.071 C 
ATOM     14  O   UNL     1       6.640  14.198  30.938  1.00  0.00    -0.545 OA
ATOM     15  O   UNL     1       5.927  14.200  33.074  1.00  0.00    -0.545 OA
ENDBRANCH   8  13
ENDBRANCH   3   7
BRANCH   6  16
ATOM     16  C   UNL     1      14.484  16.475  36.471  1.00  0.00     0.003 A 
ATOM     17  C   UNL     1      14.124  17.113  37.669  1.00  0.00     0.013 A 
ATOM     18  C   UNL     1      15.685  15.742  36.445  1.00  0.00     0.013 A 
ATOM     19  C   UNL     1      14.957  17.038  38.795  1.00  0.00     0.040 A 
ATOM     20  C   UNL     1      16.523  15.681  37.558  1.00  0.00     0.040 A 
ATOM     21  C   UNL     1      16.151  16.330  38.726  1.00  0.00     0.123 A 
ATOM     22  F   UNL     1      16.949  16.267  39.798  1.00  0.00    -0.207 F 
ENDBRANCH   6  16
ENDBRANCH   1   2
BRANCH   1  23
ATOM     23  N   UNL     1      14.754  19.625  34.032  1.00  0.00    -0.381 N 
ATOM     24  H   UNL     1      14.479  20.232  33.307  1.00  0.00     0.160 HD
BRANCH  23  25
ATOM     25  C   UNL     1      14.900  20.128  35.317  1.00  0.00     0.035 A 
ATOM     26  C   UNL     1      16.055  19.793  36.041  1.00  0.00     0.041 A 
ATOM     27  C   UNL     1      13.891  20.830  35.984  1.00  0.00     0.029 A 
ATOM     28  C   UNL     1      16.227  20.185  37.382  1.00  0.00     0.093 A 
ATOM     29  C   UNL     1      14.053  21.236  37.309  1.00  0.00     0.042 A 
ATOM     30  C   UNL     1      15.215  20.912  37.995  1.00  0.00     0.135 A 
ATOM     31  F   UNL     1      15.331  21.308  39.268  1.00  0.00    -0.206 F 
BRANCH  28  32
ATOM     32  C   UNL     1      17.467  19.800  38.129  1.00  0.00     0.419 C 
ATOM     33  F   UNL     1      17.261  19.306  39.379  1.00  0.00    -0.166 F 
ATOM     34  F   UNL     1      18.187  18.846  37.470  1.00  0.00    -0.166 F 
ATOM     35  F   UNL     1      18.318  20.854  38.286  1.00  0.00    -0.166 F 
ENDBRANCH  28  32
ENDBRANCH  23  25
ENDBRANCH   1  23
TORSDOF 7
ENDMDL
MODEL 13
REMARK VINA RESULT:    -8.307      4.781      8.693
REMARK INTER + INTRA:         -13.121
REMARK INTER:                 -11.670
REMARK INTRA:                  -1.451
REMARK UNBOUND:                -1.415
REMARK SMILES O=C([O-])c1ccc(-n2cc(CNc3ccc(F)c(C(F)(F)F)c3)c(-c3ccc(F)cc3)n2)cc1
REMARK SMILES IDX 11 1 10 2 8 3 32 4 9 5 24 6 7 7 4 8 5 9 34 10 6 11 33 12
REMARK SMILES IDX 2 13 1 14 3 15 25 16 31 17 26 18 30 19 27 20 28 21 29 22
REMARK SMILES IDX 12 23 13 25 23 26 14 27 18 28 15 29 16 30 17 31 19 32 20 33
REMARK SMILES IDX 21 34 22 35
REMARK H PARENT 12 24
ROOT
ATOM      1  C   UNL     1      15.141  20.124  34.169  1.00  0.00     0.152 C 
ENDROOT
BRANCH   1   2
ATOM      2  C   UNL     1      14.334  20.975  35.086  1.00  0.00     0.018 A 
ATOM      3  N   UNL     1      13.196  21.655  36.859  1.00  0.00    -0.240 N 
ATOM      4  N   UNL     1      13.108  22.679  35.973  1.00  0.00    -0.168 NA
ATOM      5  C   UNL     1      13.920  20.612  36.347  1.00  0.00     0.121 A 
ATOM      6  C   UNL     1      13.825  22.296  34.900  1.00  0.00     0.098 A 
BRANCH   3   7
ATOM      7  C   UNL     1      12.565  21.703  38.137  1.00  0.00     0.065 A 
ATOM      8  C   UNL     1      11.198  21.753  40.597  1.00  0.00    -0.003 A 
ATOM      9  C   UNL     1      11.240  22.899  39.790  1.00  0.00     0.012 A 
ATOM     10  C   UNL     1      11.859  20.594  40.180  1.00  0.00     0.012 A 
ATOM     11  C   UNL     1      11.931  22.876  38.568  1.00  0.00     0.029 A 
ATOM     12  C   UNL     1      12.541  20.567  38.961  1.00  0.00     0.029 A 
BRANCH   8  13
ATOM     13  C   UNL     1      10.422  21.675  41.862  1.00  0.00     0.071 C 
ATOM     14  O   UNL     1       9.899  20.645  42.247  1.00  0.00    -0.545 OA
ATOM     15  O   UNL     1      10.373  22.824  42.562  1.00  0.00    -0.545 OA
ENDBRANCH   8  13
ENDBRANCH   3   7
BRANCH   6  16
ATOM     16  C   UNL     1      13.997  23.180  33.735  1.00  0.00     0.003 A 
ATOM     17  C   UNL     1      14.668  24.407  33.854  1.00  0.00     0.013 A 
ATOM     18  C   UNL     1      13.489  22.821  32.473  1.00  0.00     0.013 A 
ATOM     19  C   UNL     1      14.802  25.257  32.747  1.00  0.00     0.040 A 
ATOM     20  C   UNL     1      13.606  23.673  31.374  1.00  0.00     0.040 A 
ATOM     21  C   UNL     1      14.264  24.886  31.521  1.00  0.00     0.123 A 
ATOM     22  F   UNL     1      14.385  25.701  30.467  1.00  0.00    -0.207 F 
ENDBRANCH   6  16
ENDBRANCH   1   2
BRANCH   1  23
ATOM     23  N   UNL     1      14.338  19.334  33.245  1.00  0.00    -0.381 N 
ATOM     24  H   UNL     1      14.169  19.680  32.339  1.00  0.00     0.160 HD
BRANCH  23  25
ATOM     25  C   UNL     1      13.806  18.106  33.610  1.00  0.00     0.035 A 
ATOM     26  C   UNL     1      14.554  17.277  34.461  1.00  0.00     0.041 A 
ATOM     27  C   UNL     1      12.630  17.586  33.059  1.00  0.00     0.029 A 
ATOM     28  C   UNL     1      14.124  15.979  34.796  1.00  0.00     0.093 A 
ATOM     29  C   UNL     1      12.185  16.306  33.392  1.00  0.00     0.042 A 
ATOM     30  C   UNL     1      12.932  15.516  34.255  1.00  0.00     0.135 A 
ATOM     31  F   UNL     1      12.480  14.290  34.542  1.00  0.00    -0.206 F 
BRANCH  28  32
ATOM     32  C   UNL     1      14.953  15.117  35.697  1.00  0.00     0.419 C 
ATOM     33  F   UNL     1      15.579  14.075  35.087  1.00  0.00    -0.166 F 
ATOM     34  F   UNL     1      15.939  15.826  36.319  1.00  0.00    -0.166 F 
ATOM     35  F   UNL     1      14.213  14.565  36.700  1.00  0.00    -0.166 F 
ENDBRANCH  28  32
ENDBRANCH  23  25
ENDBRANCH   1  23
TORSDOF 7
ENDMDL
MODEL 14
REMARK VINA RESULT:    -8.164      4.043      6.906
REMARK INTER + INTRA:         -12.919
REMARK INTER:                 -11.679
REMARK INTRA:                  -1.240
REMARK UNBOUND:                -1.415
REMARK SMILES O=C([O-])c1ccc(-n2cc(CNc3ccc(F)c(C(F)(F)F)c3)c(-c3ccc(F)cc3)n2)cc1
REMARK SMILES IDX 11 1 10 2 8 3 32 4 9 5 24 6 7 7 4 8 5 9 34 10 6 11 33 12
REMARK SMILES IDX 2 13 1 14 3 15 25 16 31 17 26 18 30 19 27 20 28 21 29 22
REMARK SMILES IDX 12 23 13 25 23 26 14 27 18 28 15 29 16 30 17 31 19 32 20 33
REMARK SMILES IDX 21 34 22 35
REMARK H PARENT 12 24
ROOT
ATOM      1  C   UNL     1      15.198  20.299  38.866  1.00  0.00     0.152 C 
ENDROOT
BRANCH   1   2
ATOM      2  C   UNL     1      15.748  20.007  37.514  1.00  0.00     0.018 A 
ATOM      3  N   UNL     1      16.143  20.129  35.338  1.00  0.00    -0.240 N 
ATOM      4  N   UNL     1      16.861  19.060  35.766  1.00  0.00    -0.168 NA
ATOM      5  C   UNL     1      15.455  20.712  36.368  1.00  0.00     0.121 A 
ATOM      6  C   UNL     1      16.660  18.992  37.094  1.00  0.00     0.098 A 
BRANCH   3   7
ATOM      7  C   UNL     1      16.120  20.528  33.969  1.00  0.00     0.065 A 
ATOM      8  C   UNL     1      15.933  21.310  31.273  1.00  0.00    -0.003 A 
ATOM      9  C   UNL     1      16.039  19.953  31.607  1.00  0.00     0.012 A 
ATOM     10  C   UNL     1      15.943  22.272  32.287  1.00  0.00     0.012 A 
ATOM     11  C   UNL     1      16.144  19.565  32.952  1.00  0.00     0.029 A 
ATOM     12  C   UNL     1      16.040  21.887  33.626  1.00  0.00     0.029 A 
BRANCH   8  13
ATOM     13  C   UNL     1      15.739  21.794  29.880  1.00  0.00     0.071 C 
ATOM     14  O   UNL     1      16.473  21.469  28.966  1.00  0.00    -0.545 OA
ATOM     15  O   UNL     1      14.667  22.591  29.708  1.00  0.00    -0.545 OA
ENDBRANCH   8  13
ENDBRANCH   3   7
BRANCH   6  16
ATOM     16  C   UNL     1      17.322  17.969  37.921  1.00  0.00     0.003 A 
ATOM     17  C   UNL     1      18.722  17.881  37.973  1.00  0.00     0.013 A 
ATOM     18  C   UNL     1      16.571  17.050  38.676  1.00  0.00     0.013 A 
ATOM     19  C   UNL     1      19.346  16.885  38.740  1.00  0.00     0.040 A 
ATOM     20  C   UNL     1      17.189  16.048  39.425  1.00  0.00     0.040 A 
ATOM     21  C   UNL     1      18.574  15.975  39.451  1.00  0.00     0.123 A 
ATOM     22  F   UNL     1      19.170  15.021  40.175  1.00  0.00    -0.207 F 
ENDBRANCH   6  16
ENDBRANCH   1   2
BRANCH   1  23
ATOM     23  N   UNL     1      15.020  21.721  39.131  1.00  0.00    -0.381 N 
ATOM     24  H   UNL     1      15.813  22.299  39.204  1.00  0.00     0.160 HD
BRANCH  23  25
ATOM     25  C   UNL     1      13.759  22.279  39.283  1.00  0.00     0.035 A 
ATOM     26  C   UNL     1      13.016  21.956  40.430  1.00  0.00     0.041 A 
ATOM     27  C   UNL     1      13.129  23.031  38.286  1.00  0.00     0.029 A 
ATOM     28  C   UNL     1      11.694  22.406  40.606  1.00  0.00     0.093 A 
ATOM     29  C   UNL     1      11.823  23.494  38.452  1.00  0.00     0.042 A 
ATOM     30  C   UNL     1      11.119  23.180  39.606  1.00  0.00     0.135 A 
ATOM     31  F   UNL     1       9.865  23.632  39.725  1.00  0.00    -0.206 F 
BRANCH  28  32
ATOM     32  C   UNL     1      10.926  22.033  41.835  1.00  0.00     0.419 C 
ATOM     33  F   UNL     1      11.605  21.269  42.733  1.00  0.00    -0.166 F 
ATOM     34  F   UNL     1      10.505  23.129  42.530  1.00  0.00    -0.166 F 
ATOM     35  F   UNL     1       9.794  21.333  41.540  1.00  0.00    -0.166 F 
ENDBRANCH  28  32
ENDBRANCH  23  25
ENDBRANCH   1  23
TORSDOF 7
ENDMDL
MODEL 15
REMARK VINA RESULT:    -8.102      4.385      7.188
REMARK INTER + INTRA:         -12.832
REMARK INTER:                 -11.955
REMARK INTRA:                  -0.877
REMARK UNBOUND:                -1.415
REMARK SMILES O=C([O-])c1ccc(-n2cc(CNc3ccc(F)c(C(F)(F)F)c3)c(-c3ccc(F)cc3)n2)cc1
REMARK SMILES IDX 11 1 10 2 8 3 32 4 9 5 24 6 7 7 4 8 5 9 34 10 6 11 33 12
REMARK SMILES IDX 2 13 1 14 3 15 25 16 31 17 26 18 30 19 27 20 28 21 29 22
REMARK SMILES IDX 12 23 13 25 23 26 14 27 18 28 15 29 16 30 17 31 19 32 20 33
REMARK SMILES IDX 21 34 22 35
REMARK H PARENT 12 24
ROOT
ATOM      1  C   UNL     1      14.766  18.947  38.730  1.00  0.00     0.152 C 
ENDROOT
BRANCH   1   2
ATOM      2  C   UNL     1      14.242  19.925  37.738  1.00  0.00     0.018 A 
ATOM      3  N   UNL     1      13.918  21.019  35.840  1.00  0.00    -0.240 N 
ATOM      4  N   UNL     1      13.133  21.652  36.749  1.00  0.00    -0.168 NA
ATOM      5  C   UNL     1      14.605  19.981  36.411  1.00  0.00     0.121 A 
ATOM      6  C   UNL     1      13.292  20.977  37.902  1.00  0.00     0.098 A 
BRANCH   3   7
ATOM      7  C   UNL     1      14.001  21.447  34.482  1.00  0.00     0.065 A 
ATOM      8  C   UNL     1      14.071  22.191  31.769  1.00  0.00    -0.003 A 
ATOM      9  C   UNL     1      14.967  21.231  32.261  1.00  0.00     0.012 A 
ATOM     10  C   UNL     1      13.158  22.790  32.642  1.00  0.00     0.012 A 
ATOM     11  C   UNL     1      14.939  20.869  33.616  1.00  0.00     0.029 A 
ATOM     12  C   UNL     1      13.123  22.426  33.989  1.00  0.00     0.029 A 
BRANCH   8  13
ATOM     13  C   UNL     1      13.986  22.567  30.334  1.00  0.00     0.071 C 
ATOM     14  O   UNL     1      12.928  22.811  29.782  1.00  0.00    -0.545 OA
ATOM     15  O   UNL     1      15.174  22.650  29.704  1.00  0.00    -0.545 OA
ENDBRANCH   8  13
ENDBRANCH   3   7
BRANCH   6  16
ATOM     16  C   UNL     1      12.554  21.352  39.120  1.00  0.00     0.003 A 
ATOM     17  C   UNL     1      11.625  22.405  39.104  1.00  0.00     0.013 A 
ATOM     18  C   UNL     1      12.762  20.669  40.332  1.00  0.00     0.013 A 
ATOM     19  C   UNL     1      10.947  22.775  40.274  1.00  0.00     0.040 A 
ATOM     20  C   UNL     1      12.101  21.048  41.501  1.00  0.00     0.040 A 
ATOM     21  C   UNL     1      11.197  22.099  41.462  1.00  0.00     0.123 A 
ATOM     22  F   UNL     1      10.556  22.459  42.580  1.00  0.00    -0.207 F 
ENDBRANCH   6  16
ENDBRANCH   1   2
BRANCH   1  23
ATOM     23  N   UNL     1      14.153  17.628  38.633  1.00  0.00    -0.381 N 
ATOM     24  H   UNL     1      13.527  17.338  39.335  1.00  0.00     0.160 HD
BRANCH  23  25
ATOM     25  C   UNL     1      14.431  16.773  37.577  1.00  0.00     0.035 A 
ATOM     26  C   UNL     1      13.418  16.511  36.642  1.00  0.00     0.041 A 
ATOM     27  C   UNL     1      15.620  16.042  37.475  1.00  0.00     0.029 A 
ATOM     28  C   UNL     1      13.594  15.580  35.601  1.00  0.00     0.093 A 
ATOM     29  C   UNL     1      15.814  15.125  36.442  1.00  0.00     0.042 A 
ATOM     30  C   UNL     1      14.804  14.903  35.516  1.00  0.00     0.135 A 
ATOM     31  F   UNL     1      15.021  14.008  34.545  1.00  0.00    -0.206 F 
BRANCH  28  32
ATOM     32  C   UNL     1      12.488  15.316  34.627  1.00  0.00     0.419 C 
ATOM     33  F   UNL     1      12.576  14.136  33.955  1.00  0.00    -0.166 F 
ATOM     34  F   UNL     1      11.265  15.306  35.231  1.00  0.00    -0.166 F 
ATOM     35  F   UNL     1      12.411  16.281  33.666  1.00  0.00    -0.166 F 
ENDBRANCH  28  32
ENDBRANCH  23  25
ENDBRANCH   1  23
TORSDOF 7
ENDMDL
MODEL 16
REMARK VINA RESULT:    -8.082      5.244      8.335
REMARK INTER + INTRA:         -12.804
REMARK INTER:                 -11.211
REMARK INTRA:                  -1.593
REMARK UNBOUND:                -1.415
REMARK SMILES O=C([O-])c1ccc(-n2cc(CNc3ccc(F)c(C(F)(F)F)c3)c(-c3ccc(F)cc3)n2)cc1
REMARK SMILES IDX 11 1 10 2 8 3 32 4 9 5 24 6 7 7 4 8 5 9 34 10 6 11 33 12
REMARK SMILES IDX 2 13 1 14 3 15 25 16 31 17 26 18 30 19 27 20 28 21 29 22
REMARK SMILES IDX 12 23 13 25 23 26 14 27 18 28 15 29 16 30 17 31 19 32 20 33
REMARK SMILES IDX 21 34 22 35
REMARK H PARENT 12 24
ROOT
ATOM      1  C   UNL     1      16.558  19.574  34.378  1.00  0.00     0.152 C 
ENDROOT
BRANCH   1   2
ATOM      2  C   UNL     1      15.733  20.014  35.536  1.00  0.00     0.018 A 
ATOM      3  N   UNL     1      14.263  21.128  36.763  1.00  0.00    -0.240 N 
ATOM      4  N   UNL     1      14.837  20.245  37.618  1.00  0.00    -0.168 NA
ATOM      5  C   UNL     1      14.792  21.018  35.504  1.00  0.00     0.121 A 
ATOM      6  C   UNL     1      15.709  19.535  36.880  1.00  0.00     0.098 A 
BRANCH   3   7
ATOM      7  C   UNL     1      13.264  22.054  37.186  1.00  0.00     0.065 A 
ATOM      8  C   UNL     1      11.194  23.784  37.986  1.00  0.00    -0.003 A 
ATOM      9  C   UNL     1      11.672  23.817  36.668  1.00  0.00     0.012 A 
ATOM     10  C   UNL     1      11.769  22.899  38.903  1.00  0.00     0.012 A 
ATOM     11  C   UNL     1      12.712  22.962  36.273  1.00  0.00     0.029 A 
ATOM     12  C   UNL     1      12.799  22.042  38.510  1.00  0.00     0.029 A 
BRANCH   8  13
ATOM     13  C   UNL     1      10.045  24.600  38.458  1.00  0.00     0.071 C 
ATOM     14  O   UNL     1       9.276  24.212  39.319  1.00  0.00    -0.545 OA
ATOM     15  O   UNL     1       9.943  25.812  37.881  1.00  0.00    -0.545 OA
ENDBRANCH   8  13
ENDBRANCH   3   7
BRANCH   6  16
ATOM     16  C   UNL     1      16.498  18.438  37.467  1.00  0.00     0.003 A 
ATOM     17  C   UNL     1      15.873  17.273  37.939  1.00  0.00     0.013 A 
ATOM     18  C   UNL     1      17.898  18.530  37.575  1.00  0.00     0.013 A 
ATOM     19  C   UNL     1      16.628  16.245  38.523  1.00  0.00     0.040 A 
ATOM     20  C   UNL     1      18.649  17.517  38.172  1.00  0.00     0.040 A 
ATOM     21  C   UNL     1      18.006  16.380  38.641  1.00  0.00     0.123 A 
ATOM     22  F   UNL     1      18.724  15.403  39.206  1.00  0.00    -0.207 F 
ENDBRANCH   6  16
ENDBRANCH   1   2
BRANCH   1  23
ATOM     23  N   UNL     1      15.787  19.340  33.164  1.00  0.00    -0.381 N 
ATOM     24  H   UNL     1      16.123  19.692  32.308  1.00  0.00     0.160 HD
BRANCH  23  25
ATOM     25  C   UNL     1      14.593  18.636  33.186  1.00  0.00     0.035 A 
ATOM     26  C   UNL     1      14.512  17.476  33.971  1.00  0.00     0.041 A 
ATOM     27  C   UNL     1      13.510  18.937  32.352  1.00  0.00     0.029 A 
ATOM     28  C   UNL     1      13.367  16.656  33.966  1.00  0.00     0.093 A 
ATOM     29  C   UNL     1      12.364  18.142  32.345  1.00  0.00     0.042 A 
ATOM     30  C   UNL     1      12.301  17.013  33.150  1.00  0.00     0.135 A 
ATOM     31  F   UNL     1      11.191  16.267  33.110  1.00  0.00    -0.206 F 
BRANCH  28  32
ATOM     32  C   UNL     1      13.320  15.419  34.808  1.00  0.00     0.419 C 
ATOM     33  F   UNL     1      14.389  15.234  35.628  1.00  0.00    -0.166 F 
ATOM     34  F   UNL     1      12.224  15.393  35.621  1.00  0.00    -0.166 F 
ATOM     35  F   UNL     1      13.237  14.288  34.051  1.00  0.00    -0.166 F 
ENDBRANCH  28  32
ENDBRANCH  23  25
ENDBRANCH   1  23
TORSDOF 7
ENDMDL
MODEL 17
REMARK VINA RESULT:    -8.038      3.848      6.188
REMARK INTER + INTRA:         -12.743
REMARK INTER:                 -11.485
REMARK INTRA:                  -1.258
REMARK UNBOUND:                -1.415
REMARK SMILES O=C([O-])c1ccc(-n2cc(CNc3ccc(F)c(C(F)(F)F)c3)c(-c3ccc(F)cc3)n2)cc1
REMARK SMILES IDX 11 1 10 2 8 3 32 4 9 5 24 6 7 7 4 8 5 9 34 10 6 11 33 12
REMARK SMILES IDX 2 13 1 14 3 15 25 16 31 17 26 18 30 19 27 20 28 21 29 22
REMARK SMILES IDX 12 23 13 25 23 26 14 27 18 28 15 29 16 30 17 31 19 32 20 33
REMARK SMILES IDX 21 34 22 35
REMARK H PARENT 12 24
ROOT
ATOM      1  C   UNL     1      14.550  20.033  39.221  1.00  0.00     0.152 C 
ENDROOT
BRANCH   1   2
ATOM      2  C   UNL     1      15.003  19.856  37.815  1.00  0.00     0.018 A 
ATOM      3  N   UNL     1      15.186  20.107  35.622  1.00  0.00    -0.240 N 
ATOM      4  N   UNL     1      16.047  19.105  35.934  1.00  0.00    -0.168 NA
ATOM      5  C   UNL     1      14.536  20.570  36.735  1.00  0.00     0.121 A 
ATOM      6  C   UNL     1      15.974  18.963  37.270  1.00  0.00     0.098 A 
BRANCH   3   7
ATOM      7  C   UNL     1      14.999  20.556  34.281  1.00  0.00     0.065 A 
ATOM      8  C   UNL     1      14.536  21.537  31.685  1.00  0.00    -0.003 A 
ATOM      9  C   UNL     1      13.772  20.472  32.183  1.00  0.00     0.012 A 
ATOM     10  C   UNL     1      15.543  22.092  32.480  1.00  0.00     0.012 A 
ATOM     11  C   UNL     1      14.011  19.976  33.474  1.00  0.00     0.029 A 
ATOM     12  C   UNL     1      15.777  21.605  33.768  1.00  0.00     0.029 A 
BRANCH   8  13
ATOM     13  C   UNL     1      14.289  22.169  30.362  1.00  0.00     0.071 C 
ATOM     14  O   UNL     1      13.211  22.642  30.053  1.00  0.00    -0.545 OA
ATOM     15  O   UNL     1      15.362  22.204  29.549  1.00  0.00    -0.545 OA
ENDBRANCH   8  13
ENDBRANCH   3   7
BRANCH   6  16
ATOM     16  C   UNL     1      16.810  17.984  37.985  1.00  0.00     0.003 A 
ATOM     17  C   UNL     1      16.230  16.911  38.679  1.00  0.00     0.013 A 
ATOM     18  C   UNL     1      18.213  18.100  37.996  1.00  0.00     0.013 A 
ATOM     19  C   UNL     1      17.031  15.999  39.382  1.00  0.00     0.040 A 
ATOM     20  C   UNL     1      19.010  17.205  38.710  1.00  0.00     0.040 A 
ATOM     21  C   UNL     1      18.411  16.159  39.397  1.00  0.00     0.123 A 
ATOM     22  F   UNL     1      19.173  15.294  40.075  1.00  0.00    -0.207 F 
ENDBRANCH   6  16
ENDBRANCH   1   2
BRANCH   1  23
ATOM     23  N   UNL     1      14.367  21.426  39.607  1.00  0.00    -0.381 N 
ATOM     24  H   UNL     1      15.135  21.931  39.958  1.00  0.00     0.160 HD
BRANCH  23  25
ATOM     25  C   UNL     1      13.136  22.056  39.494  1.00  0.00     0.035 A 
ATOM     26  C   UNL     1      13.008  23.118  38.585  1.00  0.00     0.041 A 
ATOM     27  C   UNL     1      12.056  21.786  40.341  1.00  0.00     0.029 A 
ATOM     28  C   UNL     1      11.820  23.867  38.486  1.00  0.00     0.093 A 
ATOM     29  C   UNL     1      10.868  22.511  40.246  1.00  0.00     0.042 A 
ATOM     30  C   UNL     1      10.760  23.542  39.322  1.00  0.00     0.135 A 
ATOM     31  F   UNL     1       9.610  24.223  39.266  1.00  0.00    -0.206 F 
BRANCH  28  32
ATOM     32  C   UNL     1      11.721  25.002  37.514  1.00  0.00     0.419 C 
ATOM     33  F   UNL     1      10.802  24.840  36.524  1.00  0.00    -0.166 F 
ATOM     34  F   UNL     1      11.397  26.176  38.128  1.00  0.00    -0.166 F 
ATOM     35  F   UNL     1      12.905  25.237  36.880  1.00  0.00    -0.166 F 
ENDBRANCH  28  32
ENDBRANCH  23  25
ENDBRANCH   1  23
TORSDOF 7
ENDMDL
MODEL 18
REMARK VINA RESULT:    -7.841      4.126      6.939
REMARK INTER + INTRA:         -12.465
REMARK INTER:                 -10.608
REMARK INTRA:                  -1.857
REMARK UNBOUND:                -1.415
REMARK SMILES O=C([O-])c1ccc(-n2cc(CNc3ccc(F)c(C(F)(F)F)c3)c(-c3ccc(F)cc3)n2)cc1
REMARK SMILES IDX 11 1 10 2 8 3 32 4 9 5 24 6 7 7 4 8 5 9 34 10 6 11 33 12
REMARK SMILES IDX 2 13 1 14 3 15 25 16 31 17 26 18 30 19 27 20 28 21 29 22
REMARK SMILES IDX 12 23 13 25 23 26 14 27 18 28 15 29 16 30 17 31 19 32 20 33
REMARK SMILES IDX 21 34 22 35
REMARK H PARENT 12 24
ROOT
ATOM      1  C   UNL     1      15.249  21.458  37.069  1.00  0.00     0.152 C 
ENDROOT
BRANCH   1   2
ATOM      2  C   UNL     1      15.196  22.071  35.713  1.00  0.00     0.018 A 
ATOM      3  N   UNL     1      15.567  22.441  33.562  1.00  0.00    -0.240 N 
ATOM      4  N   UNL     1      14.752  23.452  33.956  1.00  0.00    -0.168 NA
ATOM      5  C   UNL     1      15.859  21.601  34.603  1.00  0.00     0.121 A 
ATOM      6  C   UNL     1      14.487  23.222  35.255  1.00  0.00     0.098 A 
BRANCH   3   7
ATOM      7  C   UNL     1      16.054  22.338  32.225  1.00  0.00     0.065 A 
ATOM      8  C   UNL     1      17.055  21.999  29.618  1.00  0.00    -0.003 A 
ATOM      9  C   UNL     1      17.881  22.509  30.629  1.00  0.00     0.012 A 
ATOM     10  C   UNL     1      15.726  21.682  29.910  1.00  0.00     0.012 A 
ATOM     11  C   UNL     1      17.378  22.688  31.927  1.00  0.00     0.029 A 
ATOM     12  C   UNL     1      15.225  21.852  31.202  1.00  0.00     0.029 A 
BRANCH   8  13
ATOM     13  C   UNL     1      17.537  21.707  28.242  1.00  0.00     0.071 C 
ATOM     14  O   UNL     1      16.824  21.817  27.261  1.00  0.00    -0.545 OA
ATOM     15  O   UNL     1      18.832  21.345  28.166  1.00  0.00    -0.545 OA
ENDBRANCH   8  13
ENDBRANCH   3   7
BRANCH   6  16
ATOM     16  C   UNL     1      13.588  24.100  36.023  1.00  0.00     0.003 A 
ATOM     17  C   UNL     1      14.091  25.197  36.740  1.00  0.00     0.013 A 
ATOM     18  C   UNL     1      12.202  23.861  36.062  1.00  0.00     0.013 A 
ATOM     19  C   UNL     1      13.232  26.012  37.492  1.00  0.00     0.040 A 
ATOM     20  C   UNL     1      11.349  24.660  36.824  1.00  0.00     0.040 A 
ATOM     21  C   UNL     1      11.872  25.731  37.533  1.00  0.00     0.123 A 
ATOM     22  F   UNL     1      11.055  26.504  38.258  1.00  0.00    -0.207 F 
ENDBRANCH   6  16
ENDBRANCH   1   2
BRANCH   1  23
ATOM     23  N   UNL     1      14.075  20.660  37.397  1.00  0.00    -0.381 N 
ATOM     24  H   UNL     1      13.611  20.170  36.680  1.00  0.00     0.160 HD
BRANCH  23  25
ATOM     25  C   UNL     1      13.594  20.575  38.696  1.00  0.00     0.035 A 
ATOM     26  C   UNL     1      12.512  21.389  39.066  1.00  0.00     0.041 A 
ATOM     27  C   UNL     1      14.223  19.828  39.698  1.00  0.00     0.029 A 
ATOM     28  C   UNL     1      12.034  21.428  40.389  1.00  0.00     0.093 A 
ATOM     29  C   UNL     1      13.753  19.848  41.012  1.00  0.00     0.042 A 
ATOM     30  C   UNL     1      12.666  20.643  41.345  1.00  0.00     0.135 A 
ATOM     31  F   UNL     1      12.249  20.646  42.617  1.00  0.00    -0.206 F 
BRANCH  28  32
ATOM     32  C   UNL     1      10.885  22.317  40.752  1.00  0.00     0.419 C 
ATOM     33  F   UNL     1      11.095  23.130  41.822  1.00  0.00    -0.166 F 
ATOM     34  F   UNL     1      10.533  23.144  39.725  1.00  0.00    -0.166 F 
ATOM     35  F   UNL     1       9.760  21.605  41.047  1.00  0.00    -0.166 F 
ENDBRANCH  28  32
ENDBRANCH  23  25
ENDBRANCH   1  23
TORSDOF 7
ENDMDL
MODEL 19
REMARK VINA RESULT:    -7.816      4.780      8.639
REMARK INTER + INTRA:         -12.429
REMARK INTER:                 -11.606
REMARK INTRA:                  -0.823
REMARK UNBOUND:                -1.415
REMARK SMILES O=C([O-])c1ccc(-n2cc(CNc3ccc(F)c(C(F)(F)F)c3)c(-c3ccc(F)cc3)n2)cc1
REMARK SMILES IDX 11 1 10 2 8 3 32 4 9 5 24 6 7 7 4 8 5 9 34 10 6 11 33 12
REMARK SMILES IDX 2 13 1 14 3 15 25 16 31 17 26 18 30 19 27 20 28 21 29 22
REMARK SMILES IDX 12 23 13 25 23 26 14 27 18 28 15 29 16 30 17 31 19 32 20 33
REMARK SMILES IDX 21 34 22 35
REMARK H PARENT 12 24
ROOT
ATOM      1  C   UNL     1      15.009  19.513  34.509  1.00  0.00     0.152 C 
ENDROOT
BRANCH   1   2
ATOM      2  C   UNL     1      14.297  20.489  35.378  1.00  0.00     0.018 A 
ATOM      3  N   UNL     1      13.225  21.369  37.105  1.00  0.00    -0.240 N 
ATOM      4  N   UNL     1      13.268  22.358  36.177  1.00  0.00    -0.168 NA
ATOM      5  C   UNL     1      13.828  20.228  36.646  1.00  0.00     0.121 A 
ATOM      6  C   UNL     1      13.948  21.851  35.133  1.00  0.00     0.098 A 
BRANCH   3   7
ATOM      7  C   UNL     1      12.588  21.542  38.369  1.00  0.00     0.065 A 
ATOM      8  C   UNL     1      11.210  21.838  40.805  1.00  0.00    -0.003 A 
ATOM      9  C   UNL     1      11.293  22.910  39.906  1.00  0.00     0.012 A 
ATOM     10  C   UNL     1      11.835  20.627  40.490  1.00  0.00     0.012 A 
ATOM     11  C   UNL     1      11.989  22.766  38.697  1.00  0.00     0.029 A 
ATOM     12  C   UNL     1      12.523  20.479  39.284  1.00  0.00     0.029 A 
BRANCH   8  13
ATOM     13  C   UNL     1      10.424  21.888  42.066  1.00  0.00     0.071 C 
ATOM     14  O   UNL     1      10.322  22.901  42.733  1.00  0.00    -0.545 OA
ATOM     15  O   UNL     1       9.810  20.735  42.391  1.00  0.00    -0.545 OA
ENDBRANCH   8  13
ENDBRANCH   3   7
BRANCH   6  16
ATOM     16  C   UNL     1      14.235  22.661  33.937  1.00  0.00     0.003 A 
ATOM     17  C   UNL     1      13.247  23.478  33.366  1.00  0.00     0.013 A 
ATOM     18  C   UNL     1      15.505  22.634  33.332  1.00  0.00     0.013 A 
ATOM     19  C   UNL     1      13.519  24.224  32.210  1.00  0.00     0.040 A 
ATOM     20  C   UNL     1      15.772  23.362  32.172  1.00  0.00     0.040 A 
ATOM     21  C   UNL     1      14.775  24.153  31.620  1.00  0.00     0.123 A 
ATOM     22  F   UNL     1      15.031  24.859  30.513  1.00  0.00    -0.207 F 
ENDBRANCH   6  16
ENDBRANCH   1   2
BRANCH   1  23
ATOM     23  N   UNL     1      15.487  18.335  35.220  1.00  0.00    -0.381 N 
ATOM     24  H   UNL     1      16.448  18.248  35.414  1.00  0.00     0.160 HD
BRANCH  23  25
ATOM     25  C   UNL     1      14.621  17.331  35.629  1.00  0.00     0.035 A 
ATOM     26  C   UNL     1      13.699  16.821  34.701  1.00  0.00     0.041 A 
ATOM     27  C   UNL     1      14.517  16.903  36.957  1.00  0.00     0.029 A 
ATOM     28  C   UNL     1      12.725  15.874  35.069  1.00  0.00     0.093 A 
ATOM     29  C   UNL     1      13.565  15.955  37.334  1.00  0.00     0.042 A 
ATOM     30  C   UNL     1      12.681  15.449  36.391  1.00  0.00     0.135 A 
ATOM     31  F   UNL     1      11.775  14.550  36.791  1.00  0.00    -0.206 F 
BRANCH  28  32
ATOM     32  C   UNL     1      11.750  15.359  34.057  1.00  0.00     0.419 C 
ATOM     33  F   UNL     1      10.519  15.045  34.544  1.00  0.00    -0.166 F 
ATOM     34  F   UNL     1      11.530  16.258  33.054  1.00  0.00    -0.166 F 
ATOM     35  F   UNL     1      12.200  14.230  33.440  1.00  0.00    -0.166 F 
ENDBRANCH  28  32
ENDBRANCH  23  25
ENDBRANCH   1  23
TORSDOF 7
ENDMDL
MODEL 20
REMARK VINA RESULT:    -7.809      3.869      6.017
REMARK INTER + INTRA:         -12.420
REMARK INTER:                 -11.113
REMARK INTRA:                  -1.307
REMARK UNBOUND:                -1.415
REMARK SMILES O=C([O-])c1ccc(-n2cc(CNc3ccc(F)c(C(F)(F)F)c3)c(-c3ccc(F)cc3)n2)cc1
REMARK SMILES IDX 11 1 10 2 8 3 32 4 9 5 24 6 7 7 4 8 5 9 34 10 6 11 33 12
REMARK SMILES IDX 2 13 1 14 3 15 25 16 31 17 26 18 30 19 27 20 28 21 29 22
REMARK SMILES IDX 12 23 13 25 23 26 14 27 18 28 15 29 16 30 17 31 19 32 20 33
REMARK SMILES IDX 21 34 22 35
REMARK H PARENT 12 24
ROOT
ATOM      1  C   UNL     1      13.070  20.217  38.800  1.00  0.00     0.152 C 
ENDROOT
BRANCH   1   2
ATOM      2  C   UNL     1      13.815  20.201  37.512  1.00  0.00     0.018 A 
ATOM      3  N   UNL     1      14.447  20.692  35.447  1.00  0.00    -0.240 N 
ATOM      4  N   UNL     1      15.259  19.676  35.830  1.00  0.00    -0.168 NA
ATOM      5  C   UNL     1      13.560  21.022  36.437  1.00  0.00     0.121 A 
ATOM      6  C   UNL     1      14.912  19.388  37.098  1.00  0.00     0.098 A 
BRANCH   3   7
ATOM      7  C   UNL     1      14.529  21.281  34.151  1.00  0.00     0.065 A 
ATOM      8  C   UNL     1      14.644  22.322  31.539  1.00  0.00    -0.003 A 
ATOM      9  C   UNL     1      15.763  21.686  32.094  1.00  0.00     0.012 A 
ATOM     10  C   UNL     1      13.479  22.454  32.300  1.00  0.00     0.012 A 
ATOM     11  C   UNL     1      15.708  21.177  33.401  1.00  0.00     0.029 A 
ATOM     12  C   UNL     1      13.420  21.942  33.598  1.00  0.00     0.029 A 
BRANCH   8  13
ATOM     13  C   UNL     1      14.598  22.814  30.137  1.00  0.00     0.071 C 
ATOM     14  O   UNL     1      15.451  22.532  29.316  1.00  0.00    -0.545 OA
ATOM     15  O   UNL     1      13.522  23.568  29.842  1.00  0.00    -0.545 OA
ENDBRANCH   8  13
ENDBRANCH   3   7
BRANCH   6  16
ATOM     16  C   UNL     1      15.616  18.350  37.870  1.00  0.00     0.003 A 
ATOM     17  C   UNL     1      15.516  16.996  37.515  1.00  0.00     0.013 A 
ATOM     18  C   UNL     1      16.403  18.687  38.987  1.00  0.00     0.013 A 
ATOM     19  C   UNL     1      16.165  16.010  38.273  1.00  0.00     0.040 A 
ATOM     20  C   UNL     1      17.035  17.706  39.753  1.00  0.00     0.040 A 
ATOM     21  C   UNL     1      16.911  16.374  39.387  1.00  0.00     0.123 A 
ATOM     22  F   UNL     1      17.523  15.432  40.114  1.00  0.00    -0.207 F 
ENDBRANCH   6  16
ENDBRANCH   1   2
BRANCH   1  23
ATOM     23  N   UNL     1      13.479  21.287  39.701  1.00  0.00    -0.381 N 
ATOM     24  H   UNL     1      13.774  21.059  40.613  1.00  0.00     0.160 HD
BRANCH  23  25
ATOM     25  C   UNL     1      13.463  22.616  39.307  1.00  0.00     0.035 A 
ATOM     26  C   UNL     1      12.254  23.166  38.852  1.00  0.00     0.041 A 
ATOM     27  C   UNL     1      14.618  23.397  39.199  1.00  0.00     0.029 A 
ATOM     28  C   UNL     1      12.183  24.478  38.344  1.00  0.00     0.093 A 
ATOM     29  C   UNL     1      14.561  24.703  38.709  1.00  0.00     0.042 A 
ATOM     30  C   UNL     1      13.348  25.231  38.288  1.00  0.00     0.135 A 
ATOM     31  F   UNL     1      13.333  26.482  37.814  1.00  0.00    -0.206 F 
BRANCH  28  32
ATOM     32  C   UNL     1      10.879  25.029  37.857  1.00  0.00     0.419 C 
ATOM     33  F   UNL     1       9.772  24.363  38.283  1.00  0.00    -0.166 F 
ATOM     34  F   UNL     1      10.696  26.327  38.237  1.00  0.00    -0.166 F 
ATOM     35  F   UNL     1      10.802  25.035  36.496  1.00  0.00    -0.166 F 
ENDBRANCH  28  32
ENDBRANCH  23  25
ENDBRANCH   1  23
TORSDOF 7
ENDMDL
